19
Properties=species:S:1:pos:R:3 energy=-9.409479393912362 constraints="[\"7,6,2,1=0\"]" angle=0 pbc="F F F"
N        4.45859081      -0.90557898      -0.00040359
C        3.14295859      -1.18499492      -0.00040798
C        2.18271292      -0.18097268      -0.00010490
C        2.63939529       1.13306893       0.00020041
N        3.95402304       1.42530121       0.00020951
C        4.79402960       0.38778367      -0.00009412
C        0.75354869      -0.50942777      -0.00011880
O        0.43702053      -1.68722459      -0.00040378
N       -0.06212976       0.49480145       0.00017176
C       -1.44550241       0.49769379       0.00023782
S       -2.39013818      -0.98378565      -0.00005063
C       -3.75483353       0.08014373       0.00026137
N       -3.53302546       1.37299640       0.00054909
N       -2.16350731       1.61859372       0.00053559
O       -5.01783189      -0.35819511       0.00022875
H        2.86822495      -2.24003295      -0.00066016
H        5.85717613       0.61818247      -0.00008957
H        1.95890528       1.98459277       0.00044769
H       -5.52161733       0.47105456       0.00044941
19
Properties=species:S:1:pos:R:3 energy=-9.407531603055256 constraints="[\"7,6,2,1=10\"]" angle=10 pbc="F F F"
N        4.45745411      -0.87922024      -0.05265275
C        3.14257480      -1.16023482      -0.08577750
C        2.18052868      -0.17389922       0.08937920
C        2.63316259       1.12340036       0.30453732
N        3.94696301       1.41681495       0.34314782
C        4.78957548       0.39743697       0.16069420
C        0.75314283      -0.50379798       0.05093432
O        0.43865938      -1.68210330       0.04819395
N       -0.06306633       0.49991818       0.05114738
C       -1.44626563       0.50154601       0.03112292
S       -2.38851654      -0.98040510      -0.02401447
C       -3.75464022       0.08167476      -0.01749458
N       -3.53478874       1.37433121       0.01957846
N       -2.16580934       1.62132794       0.04766423
O       -5.01681396      -0.35787005      -0.04946485
H        2.86934212      -2.20133940      -0.25912899
H        5.85208558       0.62896815       0.18950008
H        1.94951136       1.95885012       0.45566768
H       -5.52178122       0.47054740      -0.03572199
19
Properties=species:S:1:pos:R:3 energy=-9.40085937173139 constraints="[\"7,6,2,1=20\"]" angle=20 pbc="F F F"
N        4.45169899      -0.83098395      -0.24012121
C        3.13724361      -1.11331446      -0.27876502
C        2.17965236      -0.17467586       0.07927353
C        2.63255876       1.07488449       0.48504423
N        3.94597093       1.36851520       0.53405552
C        4.78599406       0.39793519       0.16566702
C        0.75505497      -0.50448362       0.03058745
O        0.44252511      -1.68317462       0.03674874
N       -0.05956385       0.50019892       0.04357648
C       -1.44277591       0.50234586       0.03142360
S       -2.38465561      -0.97839267      -0.05329089
C       -3.75111514       0.08268829      -0.01757370
N       -3.53154954       1.37434529       0.04634748
N       -2.16254165       1.62127875       0.07391364
O       -5.01325135      -0.35659472      -0.05416928
H        2.85916719      -2.11490833      -0.60758011
H        5.84817924       0.63009126       0.20074528
H        1.94833169       1.86761651       0.78783705
H       -5.51845093       0.47110170      -0.02022620
19
Properties=species:S:1:pos:R:3 energy=-9.387734777065289 constraints="[\"7,6,2,1=30\"]" angle=30 pbc="F F F"
N        4.44092037      -0.75172219      -0.41521433
C        3.12736541      -1.03726528      -0.46030866
C        2.17834085      -0.17699191       0.07038602
C        2.63366445       0.99717301       0.65441629
N        3.94628608       1.29240438       0.71389596
C        4.78038003       0.40070315       0.17186828
C        0.75750353      -0.50617904       0.00857139
O        0.44711829      -1.68516253       0.02086012
N       -0.05455041       0.49986621       0.03701083
C       -1.43770911       0.50313823       0.03276974
S       -2.37990572      -0.97518772      -0.08361524
C       -3.74617148       0.08468354      -0.01725498
N       -3.52628362       1.37454796       0.07532847
N       -2.15715257       1.62086781       0.10277740
O       -5.00845767      -0.35368553      -0.05912229
H        2.84135639      -1.97628325      -0.93470350
H        5.84189835       0.63479265       0.21364614
H        1.95058766       1.72285777       1.09614189
H       -5.51348686       0.47296690      -0.00383330
19
Properties=species:S:1:pos:R:3 energy=-9.367073717523748 constraints="[\"7,6,2,1=40\"]" angle=40 pbc="F F F"
N        4.42595228      -0.64256947      -0.57375708
C        3.11395282      -0.93382636      -0.62645992
C        2.17689771      -0.18173316       0.06248723
C        2.63678249       0.89204334       0.80953810
N        3.94800121       1.19104516       0.87971405
C        4.77314493       0.40665535       0.17986430
C        0.76003469      -0.50965024      -0.01333640
O        0.45090520      -1.68859670       0.00257711
N       -0.04860677       0.49801893       0.03145807
C       -1.43167129       0.50332237       0.03480680
S       -2.37544409      -0.97126289      -0.11179899
C       -3.74059495       0.08780945      -0.01609439
N       -3.51930982       1.37516590       0.10393456
N       -2.14987158       1.61986057       0.13125250
O       -5.00337924      -0.34860516      -0.06294358
H        2.81839403      -1.78911021      -1.23441442
H        5.83351005       0.64453540       0.22888932
H        1.95697352       1.52904990       1.37558294
H       -5.50752937       0.47696656       0.01279167
19
Properties=species:S:1:pos:R:3 energy=-9.339580423721209 constraints="[\"7,6,2,1=50\"]" angle=50 pbc="F F F"
N        4.40633320      -0.50548154      -0.71267307
C        3.09647334      -0.80447668      -0.77391018
C        2.17555547      -0.18870595       0.05533499
C        2.64366279       0.76089755       0.94822568
N        3.95290436       1.06553769       1.02914527
C        4.76498002       0.41521309       0.18970350
C        0.76231707      -0.51517585      -0.03212083
O        0.45322150      -1.69373358      -0.01444170
N       -0.04232796       0.49431158       0.02687343
C       -1.42528031       0.50260657       0.03681073
S       -2.37194875      -0.96760328      -0.13305288
C       -3.73503671       0.09172424      -0.01373483
N       -3.51124007       1.37645281       0.12774373
N       -2.14130410       1.61851032       0.15436117
O       -4.99867874      -0.34181872      -0.06390423
H        2.78933640      -1.55563450      -1.50170458
H        5.82375137       0.65844833       0.24631238
H        1.97062142       1.28925574       1.62355861
H       -5.50121555       0.48308785       0.02809731
19
Properties=species:S:1:pos:R:3 energy=-9.308044334617746 constraints="[\"7,6,2,1=60\"]" angle=60 pbc="F F F"
N        4.37973739      -0.34290332      -0.83028663
C        3.07207695      -0.64966326      -0.89932246
C        2.17443811      -0.19602840       0.04976632
C        2.65840562       0.60451226       1.06899047
N        3.96558963       0.91484590       1.15912035
C        4.75721157       0.42396999       0.19975208
C        0.76415617      -0.52183474      -0.04317709
O        0.45458202      -1.69991077      -0.02538738
N       -0.03654685       0.48952807       0.02374672
C       -1.41939752       0.50128614       0.03785899
S       -2.36943238      -0.96564938      -0.14129590
C       -3.73012863       0.09536775      -0.01043117
N       -3.50344749       1.37852224       0.14024430
N       -2.13295731       1.61768563       0.16532293
O       -4.99473938      -0.33530000      -0.06087652
H        2.74827585      -1.27586265      -1.73060872
H        5.81434701       0.67264081       0.26293720
H        1.99866923       1.00468592       1.83881551
H       -5.49540819       0.48986881       0.03868199
19
Properties=species:S:1:pos:R:3 energy=-9.27720757807963 constraints="[\"7,6,2,1=70\"]" angle=70 pbc="F F F"
N        4.34139432      -0.15636532      -0.92679946
C        3.03483313      -0.46737301      -0.99829394
C        2.17348545      -0.19967793       0.04908937
C        2.68871892       0.42194017       1.17076433
N        3.99490055       0.73470194       1.26404807
C        4.75229797       0.42888379       0.20494565
C        0.76535519      -0.52695155      -0.03842911
O        0.45644638      -1.70495099      -0.02294957
N       -0.03268837       0.48595318       0.02394632
C       -1.41550185       0.50042491       0.03682314
S       -2.36750291      -0.96694859      -0.12780825
C       -3.72685212       0.09702722      -0.00769644
N       -3.49853879       1.38123368       0.13079642
N       -2.12772490       1.61883313       0.15393776
O       -4.99200530      -0.33249488      -0.05407713
H        2.68308654      -0.94579352      -1.91217956
H        5.80864848       0.68039154       0.27000286
H        2.05447681       0.67265292       2.02083585
H       -5.49161062       0.49426494       0.03731846
19
Properties=species:S:1:pos:R:3 energy=-9.25402157422919 constraints="[\"7,6,2,1=80\"]" angle=80 pbc="F F F"
N        4.28298817       0.05539558      -1.00344661
C        2.97456179      -0.25100470      -1.06234889
C        2.17216145      -0.19244340       0.06124971
C        2.74744138       0.20903530       1.25064543
N        4.05553058       0.51588861       1.33146566
C        4.75408568       0.42426697       0.19421955
C        0.76544557      -0.52492806      -0.00290672
O        0.46051507      -1.70385057       0.00572405
N       -0.03314503       0.48804931       0.03236298
C       -1.41600625       0.50209860       0.03261470
S       -2.36578947      -0.97168204      -0.07917648
C       -3.72682056       0.09457873      -0.00926410
N       -3.50053748       1.38334654       0.08169171
N       -2.13008992       1.62318400       0.10442644
O       -4.99127149      -0.33789714      -0.04636340
H        2.57361219      -0.55415696      -2.02931361
H        5.81194445       0.67193040       0.24864964
H        2.16038254       0.28363842       2.16565006
H       -5.49216455       0.49122769       0.00978662
19
Properties=species:S:1:pos:R:3 energy=-9.24760132031992 constraints="[\"7,6,2,1=90\"]" angle=90 pbc="F F F"
N        4.19912234       0.29078911      -1.05291608
C        2.88540388       0.00123744      -1.07417898
C        2.16948620      -0.16886255       0.09566484
C        2.84076048      -0.03339277       1.29402274
N        4.15420979       0.25592752       1.33719520
C        4.76338937       0.40677442       0.15545053
C        0.76388574      -0.50946151       0.07434315
O        0.46627294      -1.69022483       0.06897623
N       -0.03914111       0.50006981       0.05527192
C       -1.42174038       0.50791053       0.02650679
S       -2.36469426      -0.97437809       0.00856814
C       -3.73033745       0.08786663      -0.01957588
N       -3.51003583       1.38084230      -0.01549700
N       -2.14095655       1.62796149       0.01191302
O       -4.99255023      -0.35195355      -0.04458578
H        2.40905325      -0.09875395      -2.04928496
H        5.82537218       0.64130402       0.17897077
H        2.32764866      -0.16239041       2.24654756
H       -5.49712401       0.47677014      -0.05548186
19
Properties=species:S:1:pos:R:3 energy=-9.262403224687501 constraints="[\"7,6,2,1=100\"]" angle=100 pbc="F F F"
N        4.11549968       0.52329027      -1.05257769
C        2.79791719       0.25015619      -1.03094147
C        2.16692840      -0.14596126       0.13374333
C        2.93185378      -0.27230454       1.27568882
N        4.24941005      -0.00022288       1.27610776
C        4.77057698       0.38928523       0.10680631
C        0.76176663      -0.49097651       0.14959510
O        0.46907807      -1.67290471       0.12858341
N       -0.04511188       0.51361408       0.08027051
C       -1.42682246       0.51375173       0.02259614
S       -2.36524470      -0.97003732       0.08962247
C       -3.73321782       0.08271455      -0.03085382
N       -3.51675591       1.37414573      -0.10636278
N       -2.14903725       1.62792327      -0.07253089
O       -4.99362492      -0.36268244      -0.04667462
H        2.24828553       0.35117707      -1.96672620
H        5.83549982       0.61104267       0.09550279
H        2.49166745      -0.60129556       2.21654396
H       -5.50028919       0.46157873      -0.12002841
19
Properties=species:S:1:pos:R:3 energy=-9.291646210472603 constraints="[\"7,6,2,1=110\"]" angle=110 pbc="F F F"
N        4.05717405       0.73034118      -1.00228216
C        2.73878632       0.46275264      -0.95704900
C        2.16660678      -0.13769885       0.15027451
C        2.99349539      -0.47926846       1.20190551
N        4.31217394      -0.21417977       1.17853030
C        4.77313005       0.38328116       0.07357468
C        0.76019921      -0.48212526       0.18280438
O        0.46819356      -1.66425356       0.15256586
N       -0.04845866       0.51996660       0.09115719
C       -1.42957594       0.51617165       0.02082538
S       -2.36710672      -0.96565081       0.13053858
C       -3.73510808       0.08112761      -0.03388946
N       -3.51931425       1.36979085      -0.14872417
N       -2.15212240       1.62611463      -0.11312860
O       -4.99498938      -0.36593095      -0.04388607
H        2.14046185       0.73653488      -1.82617663
H        5.83859292       0.60060337       0.04316473
H        2.60276888      -0.97865266       2.08806157
H       -5.50185387       0.45496656      -0.14737545
19
Properties=species:S:1:pos:R:3 energy=-9.326195960339193 constraints="[\"7,6,2,1=120\"]" angle=120 pbc="F F F"
N        4.02080715       0.91115837      -0.91423988
C        2.70276227       0.64197301      -0.86383279
C        2.16805101      -0.13902259       0.14686931
C        3.03351439      -0.65495661       1.09194309
N        4.35211854      -0.39009658       1.06255261
C        4.77486928       0.38533466       0.05767942
C        0.75894671      -0.48074613       0.18239533
O        0.46541764      -1.66272483       0.14886153
N       -0.05111865       0.52091533       0.08962848
C       -1.43226076       0.51610390       0.01965206
S       -2.36970532      -0.96491649       0.14034842
C       -3.73776804       0.08076931      -0.03054727
N       -3.52201906       1.36864649      -0.15418526
N       -2.15481803       1.62519058      -0.12103860
O       -4.99767188      -0.36630325      -0.03668535
H        2.07494232       1.06187783      -1.65007578
H        5.83999255       0.60366782       0.02292562
H        2.67426427      -1.29694989       1.89586702
H       -5.50457660       0.45388004      -0.14549145
19
Properties=species:S:1:pos:R:3 energy=-9.359496707686347 constraints="[\"7,6,2,1=130\"]" angle=130 pbc="F F F"
N        3.99836453       1.06694491      -0.79616293
C        2.68083667       0.79356778      -0.75262959
C        2.17039718      -0.14430334       0.13116086
C        3.06153287      -0.80397426       0.95695271
N        4.37982713      -0.53688341       0.93291417
C        4.77740822       0.39020788       0.05466732
C        0.75768691      -0.48293764       0.16235358
O        0.46149251      -1.66461794       0.12901009
N       -0.05407766       0.51908419       0.08068697
C       -1.43562588       0.51459133       0.01845586
S       -2.37292337      -0.96717430       0.13090489
C       -3.74145647       0.08035243      -0.02430804
N       -3.52587503       1.36915608      -0.13836341
N       -2.15845050       1.62499989      -0.10985786
O       -5.00152921      -0.36627878      -0.02806538
H        2.03499632       1.33786248      -1.44222910
H        5.84207792       0.61149491       0.02508448
H        2.72377388      -1.56567636       1.65940364
H       -5.50868565       0.45494876      -0.12739327
19
Properties=species:S:1:pos:R:3 energy=-9.387342388909946 constraints="[\"7,6,2,1=140\"]" angle=140 pbc="F F F"
N        3.98400910       1.19716889      -0.65324784
C        2.66691563       0.91968676      -0.62306728
C        2.17304983      -0.15025943       0.10957569
C        3.08329802      -0.92863670       0.80268801
N        4.40133936      -0.65937614       0.78976376
C        4.78093862       0.39443615       0.05961912
C        0.75625794      -0.48622754       0.13268533
O        0.45663960      -1.66746046       0.10148584
N       -0.05750305       0.51610660       0.06816739
C       -1.43957437       0.51232336       0.01712185
S       -2.37675654      -0.97088562       0.11013633
C       -3.74584269       0.07962319      -0.01761213
N       -3.53044466       1.37007709      -0.11168672
N       -2.16274443       1.62491215      -0.08842773
O       -5.00611917      -0.36644991      -0.02040364
H        2.00952262       1.56891425      -1.20222336
H        5.84525013       0.61855401       0.04021036
H        2.76225529      -1.78992385       1.38833213
H       -5.51356375       0.45652825      -0.10220315
19
Properties=species:S:1:pos:R:3 energy=-9.407541399153446 constraints="[\"7,6,2,1=150\"]" angle=150 pbc="F F F"
N        3.97414518       1.30043373      -0.49019107
C        2.65733798       1.02030433      -0.47517020
C        2.17557262      -0.15492587       0.08741314
C        3.10169240      -1.02909050       0.63244841
N        4.41964388      -0.75898271       0.63163805
C        4.78516842       0.39628262       0.06758255
C        0.75465380      -0.48903130       0.10085288
O        0.45122062      -1.66968240       0.07331548
N       -0.06125581       0.51314765       0.05503361
C       -1.44380060       0.50992650       0.01584784
S       -2.38100719      -0.97468400       0.08358345
C       -3.75049176       0.07870157      -0.01208616
N       -3.53517430       1.37074862      -0.08119170
N       -2.16723174       1.62460776      -0.06258001
O       -5.01096046      -0.36683585      -0.01540766
H        1.99190201       1.75507609      -0.92955727
H        5.84927577       0.62205999       0.05955271
H        2.79532866      -1.97085987       1.08757375
H       -5.51859230       0.45783803      -0.07625661
19
Properties=species:S:1:pos:R:3 energy=-9.41988747612715 constraints="[\"7,6,2,1=160\"]" angle=160 pbc="F F F"
N        3.96692241       1.37529085      -0.31187258
C        2.65022777       1.09427254      -0.31005698
C        2.17761805      -0.15739614       0.06895901
C        3.11732985      -1.10375833       0.44876056
N        4.43538873      -0.83427535       0.45719815
C        4.78948764       0.39574044       0.07406567
C        0.75305114      -0.49053728       0.07250753
O        0.44601180      -1.67057774       0.05035245
N       -0.06494003       0.51099745       0.04358651
C       -1.44783802       0.50795195       0.01501200
S       -2.38512718      -0.97766602       0.05532735
C       -3.75484964       0.07778936      -0.00870884
N       -3.53956068       1.37097332      -0.05165527
N       -2.17145493       1.62412112      -0.03621602
O       -5.01545368      -0.36735556      -0.01414332
H        1.97875174       1.89357964      -0.62532328
H        5.85355867       0.62182630       0.07556336
H        2.82411905      -2.10618117       0.76032654
H       -5.52318593       0.45854070      -0.05387591
19
Properties=species:S:1:pos:R:3 energy=-9.425862551796378 constraints="[\"7,6,2,1=170\"]" angle=170 pbc="F F F"
N        3.96173072       1.42062432      -0.12334616
C        2.64502625       1.13980705      -0.13078214
C        2.17893627      -0.15797552       0.05643372
C        3.12896131      -1.14996619       0.25467697
N        4.44723345      -0.88171344       0.26751714
C        4.79288448       0.39427815       0.07642370
C        0.75182886      -0.49084365       0.05057207
O        0.44215669      -1.67042067       0.03564562
N       -0.06779869       0.50991129       0.03501727
C       -1.45091975       0.50672721       0.01489391
S       -2.38818710      -0.97944881       0.02794849
C       -3.75810510       0.07707884      -0.00766203
N       -3.54291242       1.37086581      -0.02551907
N       -2.17473132       1.62365801      -0.01145962
O       -5.01875750      -0.36787986      -0.01666977
H        1.96909804       1.97975376      -0.29430781
H        5.85702226       0.61992732       0.08399665
H        2.84593262      -2.19074995       0.41116619
H       -5.52659263       0.45865725      -0.03696835
19
Properties=species:S:1:pos:R:3 energy=-9.427528976944313 constraints="[\"7,6,2,1=180\"]" angle=180 pbc="F F F"
N        3.95865363       1.43563317       0.07032050
C        2.64196139       1.15501707       0.05679566
C        2.17942550      -0.15783180       0.04848084
C        3.13451948      -1.16518965       0.05472585
N        4.45289760      -0.89750078       0.06823015
C        4.79419617       0.39371807       0.07531911
C        0.75145666      -0.49070896       0.03371364
O        0.44079518      -1.67013546       0.02725668
N       -0.06888781       0.50965551       0.02871634
C       -1.45211927       0.50630969       0.01534837
S       -2.38916669      -0.98002436       0.00199811
C       -3.75933597       0.07672307      -0.00816111
N       -3.54436482       1.37065601      -0.00233944
N       -2.17617480       1.62339639       0.01160030
O       -5.01995501      -0.36822097      -0.02162884
H        1.96340717       2.00863155       0.05275774
H        5.85836076       0.61910308       0.08624662
H        2.85636971      -2.21893871       0.04894109
H       -5.52795821       0.45845752      -0.02415295
19
Properties=species:S:1:pos:R:3 energy=-9.425862551796378 constraints="[\"7,6,2,1=190\"]" angle=190 pbc="F F F"
N        3.95792054       1.41972444       0.26394787
C        2.64135178       1.13885759       0.24433202
C        2.17912006      -0.15780569       0.04053631
C        3.13291366      -1.14859831      -0.14520137
N        4.45115573      -0.88026553      -0.13103564
C        4.79289967       0.39458101       0.07420496
C        0.75220733      -0.49071028       0.01687842
O        0.44243603      -1.67035413       0.01889842
N       -0.06769085       0.50992766       0.02246166
C       -1.45094227       0.50661263       0.01583450
S       -2.38759943      -0.97947035      -0.02404779
C       -3.75808065       0.07681571      -0.00870536
N       -3.54343178       1.37047796       0.02088686
N       -2.17526570       1.62336238       0.03474939
O       -5.01861680      -0.36820024      -0.02668823
H        1.96229026       1.97781998       0.39972725
H        5.85695767       0.62028154       0.08848578
H        2.85308052      -2.18844237      -0.31325715
H       -5.52685091       0.45819927      -0.01138905
19
Properties=species:S:1:pos:R:3 energy=-9.41988747612715 constraints="[\"7,6,2,1=200\"]" angle=200 pbc="F F F"
N        3.95964110       1.37273115       0.45230468
C        2.64324784       1.09177934       0.42342673
C        2.17812956      -0.15758890       0.02791666
C        3.12506865      -1.10168744      -0.33935677
N        4.44302466      -0.83221188      -0.32077773
C        4.78957669       0.39547851       0.07645306
C        0.75392585      -0.49063720      -0.00512505
O        0.44657136      -1.67076793       0.00407589
N       -0.06455230       0.51073426       0.01390044
C       -1.44774455       0.50757271       0.01569499
S       -2.38397367      -0.97774161      -0.05150330
C       -3.75475428       0.07737491      -0.00773869
N       -3.54042894       1.37027406       0.04698967
N       -2.17229847       1.62344990       0.05950817
O       -5.01519570      -0.36774045      -0.02932506
H        1.96575219       1.88921609       0.73044318
H        5.85346039       0.62153369       0.09681755
H        2.83799409      -2.10221622      -0.66250989
H       -5.52366085       0.45792926       0.00543245
19
Properties=species:S:1:pos:R:3 energy=-9.407541399153446 constraints="[\"7,6,2,1=210\"]" angle=210 pbc="F F F"
N        3.96393085       1.29518479       0.63001619
C        2.64762455       1.01545841       0.58797152
C        2.17659928      -0.15621346       0.00910394
C        3.11294291      -1.02723182      -0.52335890
N        4.43066838      -0.75745315      -0.49556943
C        4.78542446       0.39426095       0.08244387
C        0.75616432      -0.48985592      -0.03375292
O        0.45203677      -1.67056028      -0.01922224
N       -0.06035559       0.51222058       0.00231104
C       -1.44340163       0.50911805       0.01473838
S       -2.37934303      -0.97481393      -0.08000982
C       -3.75026664       0.07833737      -0.00450433
N       -3.53613667       1.36989026       0.07650175
N       -2.16805268       1.62349752       0.08586025
O       -5.01062927      -0.36688074      -0.02823184
H        1.97366056       1.74761899       1.03392621
H        5.84920758       0.61973385       0.11230621
H        2.81527330      -1.96612900      -0.99004106
H       -5.51922180       0.45754749       0.02772668
19
Properties=species:S:1:pos:R:3 energy=-9.387342388909946 constraints="[\"7,6,2,1=220\"]" angle=220 pbc="F F F"
N        3.97140976       1.18845134       0.79191026
C        2.65501309       0.91190635       0.73480926
C        2.17471432      -0.15317681      -0.01377541
C        3.09774193      -0.92768771      -0.69421308
N        4.41541813      -0.65927905      -0.65441386
C        4.78146903       0.38972970       0.08942509
C        0.75847087      -0.48811386      -0.06615314
O        0.45764873      -1.66931388      -0.04802812
N       -0.05591287       0.51427737      -0.01117583
C       -1.43871516       0.51102466       0.01320553
S       -2.37467875      -0.97100734      -0.10692343
C       -3.74544503       0.07954763       0.00086050
N       -3.53125174       1.36926862       0.10696489
N       -2.16322947       1.62339377       0.11161812
O       -5.00576514      -0.36575277      -0.02336353
H        1.98695753       1.55791222       1.30530173
H        5.84531605       0.61311269       0.13058325
H        2.78757475      -1.78510549      -1.29128413
H       -5.51427837       0.45702547       0.05367159
19
Properties=species:S:1:pos:R:3 energy=-9.359496707686347 constraints="[\"7,6,2,1=230\"]" angle=230 pbc="F F F"
N        3.98381410       1.05457079       0.93319442
C        2.66712302       0.78274399       0.86291214
C        2.17269771      -0.14900365      -0.03633640
C        3.07884313      -0.80420491      -0.84926582
N        4.39666996      -0.53855960      -0.79851887
C        4.77830455       0.38251978       0.09301389
C        0.76054076      -0.48596982      -0.09657520
O        0.46261570      -1.66751223      -0.07635676
N       -0.05175165       0.51633342      -0.02420281
C       -1.43424408       0.51287416       0.01153679
S       -2.37058358      -0.96718859      -0.12806969
C       -3.74087219       0.08077456       0.00745311
N       -3.52632877       1.36861923       0.13364780
N       -2.15837402       1.62321263       0.13291723
O       -5.00119663      -0.36456043      -0.01570011
H        2.00877324       1.32329780       1.54356678
H        5.84240781       0.60258285       0.14421048
H        2.75384684      -1.56106656      -1.56288063
H       -5.50940585       0.45656164       0.07901124
19
Properties=species:S:1:pos:R:3 energy=-9.326195960339193 constraints="[\"7,6,2,1=240\"]" angle=240 pbc="F F F"
N        4.00456859       0.89567041       1.04951954
C        2.68738608       0.62856847       0.97253843
C        2.17082548      -0.14522601      -0.05304148
C        3.05335626      -0.65618840      -0.98495078
N        4.37149264      -0.39328701      -0.92901447
C        4.77618046       0.37509358       0.08862182
C        0.76221216      -0.48473419      -0.11736436
O        0.46656561      -1.66648405      -0.09693717
N       -0.04818123       0.51745759      -0.03366699
C       -1.43040753       0.51414984       0.01004885
S       -2.36730146      -0.96476041      -0.13775950
C       -3.73701290       0.08175722       0.01373533
N       -3.52198924       1.36852691       0.14957228
N       -2.15407533       1.62334684       0.14399898
O       -4.99738165      -0.36356956      -0.00685680
H        2.04537031       1.04428632       1.74948758
H        5.84072495       0.59176979       0.14484598
H        2.70855412      -1.29249636      -1.79964902
H       -5.50520266       0.45662683       0.09748642
19
Properties=species:S:1:pos:R:3 energy=-9.291646210472603 constraints="[\"7,6,2,1=250\"]" angle=250 pbc="F F F"
N        4.05727500       0.72984723       1.00232986
C        2.73888278       0.46228068       0.95709761
C        2.16659148      -0.13762323      -0.15046491
C        2.99337388      -0.47867241      -1.20234830
N        4.31205472      -0.21359491      -1.17897525
C        4.77312235       0.38331959      -0.07377086
C        0.76018071      -0.48203396      -0.18302298
O        0.46817843      -1.66417716      -0.15333963
N       -0.04846815       0.52001220      -0.09079844
C       -1.42957831       0.51618203      -0.02032892
S       -2.36711979      -0.96558627      -0.13068026
C       -3.73510480       0.08111027       0.03440376
N       -3.51929970       1.36971663       0.14985402
N       -2.15211152       1.62605840       0.11424704
O       -4.99498496      -0.36595357       0.04430659
H        2.14064608       0.73563284       1.82642101
H        5.83858822       0.60062706      -0.04336112
H        2.60255794      -0.97761839      -2.08871174
H       -5.50183920       0.45489250       0.14825320
19
Properties=species:S:1:pos:R:3 energy=-9.262403224687501 constraints="[\"7,6,2,1=260\"]" angle=260 pbc="F F F"
N        4.09598227       0.50601133       1.18780544
C        2.77867398       0.23496935       1.13947892
C        2.16942204      -0.15285177      -0.03946994
C        2.95562102      -0.27310626      -1.16752527
N        4.27331786      -0.00297175      -1.14123041