19
Properties=species:S:1:pos:R:3 energy=-9.409479393912362 constraints="[\"10,9,8,6=0\"]" angle=0 pbc="F F F"
N        4.45905270      -0.90052718       0.00393912
C        3.14361951      -1.18087748       0.00324617
C        2.18266060      -0.17753805       0.00273352
C        2.63841025       1.13682730       0.00296716
N        3.95283060       1.42999021       0.00365974
C        4.79357754       0.39307229       0.00410901
C        0.75373032      -0.50700903       0.00198104
O        0.43804203      -1.68503128       0.00182654
N       -0.06266240       0.49663978       0.00153844
C       -1.44603711       0.49855169       0.00080873
S       -2.38963467      -0.98358925       0.00032870
C       -3.75507611       0.07938157      -0.00040204
N       -3.53417438       1.37238912      -0.00029964
N       -2.16483040       1.61894652       0.00041862
O       -5.01776690      -0.35984339      -0.00106102
H        2.86963540      -2.23611043       0.00310701
H        5.85656003       0.62422605       0.00466875
H        1.95731722       1.98786883       0.00260315
H       -5.52213397       0.46905264      -0.00133914
19
Properties=species:S:1:pos:R:3 energy=-9.40422052186648 constraints="[\"10,9,8,6=10\"]" angle=10 pbc="F F F"
N        4.45525595      -0.89455749      -0.19765228
C        3.13927103      -1.16345546      -0.26718114
C        2.18154444      -0.16680935      -0.12772574
C        2.64101143       1.12885411       0.08500228
N        3.95601936       1.41052639       0.15604121
C        4.79353460       0.38117779       0.01071958
C        0.75208159      -0.48339859      -0.20773779
O        0.43302362      -1.63610944      -0.44654734
N       -0.06225874       0.50695218      -0.03614561
C       -1.44527879       0.50622437      -0.04215146
S       -2.38129062      -0.98063644      -0.04683566
C       -3.75120911       0.07533453       0.00651327
N       -3.53596305       1.36881111       0.04415804
N       -2.16793687       1.62201422       0.02578909
O       -5.01165692      -0.37005038       0.02122953
H        2.86208737      -2.20402052      -0.43742250
H        5.85697995       0.60305556       0.06744955
H        1.96247302       1.97366121       0.20350905
H       -5.51952699       0.45597113       0.05605970
19
Properties=species:S:1:pos:R:3 energy=-9.38906350893945 constraints="[\"10,9,8,6=20\"]" angle=20 pbc="F F F"
N        4.35795853      -0.84248033      -1.15835293
C        3.03168098      -1.06314257      -1.19358585
C        2.12172680      -0.11862151      -0.73588390
C        2.63963636       1.07400378      -0.24181773
N        3.96544942       1.30688304      -0.20213525
C        4.75435876       0.33364227      -0.66330548
C        0.68023247      -0.38059438      -0.78496520
O        0.30098628      -1.41146516      -1.31557082
N       -0.08546935       0.53516989      -0.28770391
C       -1.46350112       0.53214288      -0.18260008
S       -2.39143621      -0.95779370      -0.25545350
C       -3.74894813       0.06708585       0.06392525
N       -3.53037639       1.34830514       0.24260571
N       -2.17135055       1.61889822       0.11650688
O       -5.00082399      -0.39308620       0.15546461
H        2.70671396      -2.02215420      -1.59768206
H        5.82631588       0.51631648      -0.63327410
H        2.00057092       1.87285540       0.13445400
H       -5.50215780       0.41584313       0.34456548
19
Properties=species:S:1:pos:R:3 energy=-9.365615459462386 constraints="[\"10,9,8,6=30\"]" angle=30 pbc="F F F"
N        4.32445443      -0.75338794      -1.38331096
C        2.99283900      -0.92797257      -1.45578104
C        2.10679104      -0.04281445      -0.85530058
C        2.65392140       1.04180731      -0.17827551
N        3.98533856       1.22794264      -0.09954555
C        4.75003965       0.31791341      -0.70743247
C        0.65938305      -0.25241894      -0.94821216
O        0.25087588      -1.15878193      -1.65561859
N       -0.08577933       0.58244921      -0.30159727
C       -1.46325964       0.56936861      -0.21206180
S       -2.35744622      -0.94006683      -0.29414192
C       -3.73239886       0.05046411       0.05886839
N       -3.53709906       1.33074050       0.27007106
N       -2.18477036       1.63115567       0.13885487
O       -4.97359105      -0.43725598       0.15336457
H        2.64364706      -1.80116147      -2.00734417
H        5.82642245       0.46307941      -0.64668386
H        2.03431723       1.78888398       0.31780974
H       -5.48883645       0.35663532       0.36720829
19
Properties=species:S:1:pos:R:3 energy=-9.335849198765546 constraints="[\"10,9,8,6=40\"]" angle=40 pbc="F F F"
N        4.28917192      -0.61111065      -1.61494268
C        2.95335165      -0.73850675      -1.70590894
C        2.09211861       0.05978195      -0.96447749
C        2.66816995       1.00732603      -0.12552569
N        4.00405760       1.14518965      -0.02642244
C        4.74374290       0.32629685      -0.77804154
C        0.64003320      -0.09578987      -1.08014553
O        0.20225455      -0.85813149      -1.92680700
N       -0.08462524       0.63381937      -0.29865446
C       -1.46119753       0.61147158      -0.23142907
S       -2.31576618      -0.91901864      -0.32597781
C       -3.71259338       0.03362288       0.04675008
N       -3.54557262       1.31313323       0.28668888
N       -2.20049875       1.64642261       0.15959272
O       -4.94179636      -0.48454591       0.13592858
H        2.58013769      -1.50221944      -2.38861283
H        5.82363768       0.43290368      -0.70171770
H        2.06866470       1.67980583       0.48804988
H       -5.47429998       0.29289259       0.36725949
19
Properties=species:S:1:pos:R:3 energy=-9.30152965720646 constraints="[\"10,9,8,6=50\"]" angle=50 pbc="F F F"
N        4.25588729      -0.40560449      -1.83775856
C        2.91703091      -0.49254405      -1.93169853
C        2.07896244       0.18808503      -1.05836246
C        2.68107272       0.97433347      -0.08254010
N        4.02022921       1.07020725       0.02132701
C        4.73664018       0.37312236      -0.86392201
C        0.62345825       0.07947976      -1.17922093
O        0.15849491      -0.52936091      -2.12981719
N       -0.08223930       0.67953089      -0.28045008
C       -1.45742913       0.65182882      -0.23998567
S       -2.27316877      -0.89702572      -0.34992280
C       -3.69229239       0.02017525       0.02939877
N       -3.55358782       1.29859504       0.29358679
N       -2.21518918       1.66206546       0.17866102
O       -4.91015896      -0.52604848       0.10596543
H        2.52217391      -1.12670712      -2.72578132
H        5.81908908       0.44645837      -0.78461936
H        2.10026582       1.54715738       0.64038259
H       -5.46017719       0.23595845       0.34748833
19
Properties=species:S:1:pos:R:3 energy=-9.264331423348224 constraints="[\"10,9,8,6=60\"]" angle=60 pbc="F F F"
N        4.22783831      -0.13513975      -2.03147533
C        2.88696880      -0.19313552      -2.11890762
C        2.06836676       0.33880105      -1.13149071
C        2.69180538       0.94439460      -0.04656707
N        4.03315289       1.00937923       0.05233995
C        4.73005530       0.46460384      -0.94793057
C        0.61054938       0.26471245      -1.24664614
O        0.12264619      -0.18631108      -2.27123469
N       -0.07902486       0.71149359      -0.25240028
C       -1.45241485       0.68393206      -0.23829372
S       -2.23655904      -0.87753916      -0.36489510
C       -3.67458389       0.01234349       0.01032166
N       -3.55940338       1.28946574       0.29280403
N       -2.22598019       1.67565525       0.19483611
O       -4.88365469      -0.55512636       0.06998502
H        2.47441793      -0.68135298      -3.00213859
H        5.81420724       0.51384538      -0.87341684
H        2.12667860       1.39264686       0.77059010
H       -5.44845998       0.19492859       0.31485050
19
Properties=species:S:1:pos:R:3 energy=-9.22703713330494 constraints="[\"10,9,8,6=70\"]" angle=70 pbc="F F F"
N        4.20655831       0.19200822      -2.17592644
C        2.86446120       0.15072322      -2.25381029
C        2.06079538       0.50612605      -1.17877136
C        2.70028089       0.91590528      -0.01462182
N        4.04296782       0.96191571       0.07593284
C        4.72491163       0.59655895      -1.01245359
C        0.60151438       0.45320486      -1.28450242
O        0.09627377       0.16400942      -2.35821157
N       -0.07518362       0.72554861      -0.22160214
C       -1.44674428       0.70273212      -0.22727800
S       -2.21107758      -0.86444999      -0.36925110
C       -3.66202394       0.01032750      -0.00640971
N       -3.56226379       1.28677654       0.28587656
N       -2.23134717       1.68563041       0.20554368
O       -4.86616506      -0.56903541       0.03593423
H        2.43863687      -0.17844149      -3.20195769
H        5.81010031       0.63150796      -0.94532333
H        2.14719374       1.21744001       0.87485419
H       -5.44102093       0.17457600       0.27716254
19
Properties=species:S:1:pos:R:3 energy=-9.19465150479719 constraints="[\"10,9,8,6=80\"]" angle=80 pbc="F F F"
N        4.19093341       0.55875105      -2.25592661
C        2.84812458       0.52508545      -2.32550133
C        2.05581902       0.68266891      -1.19622259
C        2.70733718       0.88490571       0.01474499
N        4.05078589       0.92081363       0.09775827
C        4.72133182       0.75555890      -1.04516545
C        0.59560958       0.64098413      -1.29359177
O        0.07824403       0.51897400      -2.39330217
N       -0.07054397       0.72370013      -0.19352172
C       -1.44078427       0.70727865      -0.20778806
S       -2.19738014      -0.85997823      -0.36084848
C       -3.65515404       0.01238929      -0.01806128
N       -3.56268820       1.28999229       0.27242854
N       -2.23192129       1.69233558       0.20732183
O       -4.85818276      -0.57009801       0.00971043
H        2.41243341       0.36516868      -3.31204509
H        5.80710870       0.78351720      -0.98458954
H        2.16348395       1.02279114       0.94916591
H       -5.43829865       0.17318430       0.23926317
19
Properties=species:S:1:pos:R:3 energy=-9.172676135414935 constraints="[\"10,9,8,6=90\"]" angle=90 pbc="F F F"
N        4.17928029       0.94268789      -2.26297208
C        2.83606346       0.91292260      -2.32755865
C        2.05258148       0.86083550      -1.18241830
C        2.71338930       0.84742779       0.04018294
N        4.05724307       0.87681687       0.11850407
C        4.71888582       0.92338200      -1.04052859
C        0.59174016       0.82638121      -1.27482922
O        0.06656781       0.87527267      -2.37644340
N       -0.06561476       0.71427354      -0.17216452
C       -1.43528402       0.70329994      -0.18411706
S       -2.19158457      -0.86169679      -0.34109590
C       -3.65223729       0.01618492      -0.02378412
N       -3.56216155       1.29703905       0.25332463
N       -2.23039045       1.69796897       0.19886528
O       -4.85620637      -0.56464222      -0.00561442
H        2.39286751       0.92908430      -3.32355037
H        5.80497640       0.94734866      -0.98399774
H        2.17684048       0.81194277       0.98818399
H       -5.43850038       0.18238453       0.20579387
19
Properties=species:S:1:pos:R:3 energy=-9.162652277940332 constraints="[\"10,9,8,6=100\"]" angle=100 pbc="F F F"
N        4.17310020       1.32004029      -2.19447980
C        2.82970464       1.29588485      -2.25936246
C        2.05088392       1.03394950      -1.14005425
C        2.71666105       0.80245693       0.05769714
N        4.06063161       0.82357019       0.13608623
C        4.71751734       1.08252752      -0.99740482
C        0.58967940       1.00874870      -1.23301929
O        0.06212158       1.22789810      -2.31236993
N       -0.06271620       0.70803519      -0.16293825
C       -1.43241673       0.70088341      -0.16715675
S       -2.18919737      -0.86313889      -0.31971013
C       -3.65141000       0.01969692      -0.02307902
N       -3.56286015       1.30427614       0.23649424
N       -2.23060521       1.70438615       0.18527274
O       -4.85586423      -0.56008825      -0.00746940
H        2.38262086       1.48983724      -3.23465819
H        5.80370997       1.10114724      -0.94081690
H        2.18412531       0.59289300       0.98519622
H       -5.43941415       0.19051530       0.18744299
19
Properties=species:S:1:pos:R:3 energy=-9.160468020157433 constraints="[\"10,9,8,6=110\"]" angle=110 pbc="F F F"
N        4.17444532       1.67065488      -2.05481847
C        2.83111000       1.65709203      -2.12542197
C        2.05093242       1.19639688      -1.07316126
C        2.71543719       0.75225273       0.06374508
N        4.05922085       0.76019115       0.14709338
C        4.71738802       1.22100765      -0.91961549
C        0.58970622       1.18611283      -1.17220650
O        0.06623987       1.57185939      -2.20564011
N       -0.06348415       0.71020148      -0.16769554
C       -1.43360272       0.70536738      -0.16388766
S       -2.18769448      -0.86045222      -0.30631793
C       -3.65183508       0.02136868      -0.01658228
N       -3.56640207       1.30850414       0.22993631
N       -2.23509851       1.71147541       0.17409023
O       -4.85494220      -0.56097136       0.00321979
H        2.38526969       2.02388744      -3.05030749
H        5.80346825       1.23031286      -0.85873115
H        2.18202417       0.37703763       0.93688812
H       -5.44025305       0.19020147       0.19080549
19
Properties=species:S:1:pos:R:3 energy=-9.159529227414067 constraints="[\"10,9,8,6=120\"]" angle=120 pbc="F F F"
N        4.18239800       1.98029039      -1.85409893
C        2.83938823       1.98333387      -1.93302713
C        2.05246671       1.34317684      -0.98472247
C        2.71003221       0.69920902       0.05657135
N        4.05331116       0.68816917       0.14697866
C        4.71819102       1.33199144      -0.81575618
C        0.59159253       1.35455104      -1.09212906
O        0.07771599       1.90074348      -2.05535273
N       -0.06741589       0.72053777      -0.18255291
C       -1.43822939       0.71632257      -0.17161215
S       -2.18538536      -0.85395617      -0.30139373
C       -3.65268028       0.02034701      -0.00629629
N       -3.57300135       1.30880877       0.23330817
N       -2.24421074       1.71880517       0.16772432
O       -4.85238451      -0.56853333       0.02191330
H        2.39942468       2.51199229      -2.77901842
H        5.80393068       1.32720756      -0.74859498
H        2.17132367       0.17369251       0.84477479
H       -5.44066598       0.18001555       0.21094682
19
Properties=species:S:1:pos:R:3 energy=-9.153990350228206 constraints="[\"10,9,8,6=130\"]" angle=130 pbc="F F F"
N        4.19494928       2.23840937      -1.60533551
C        2.85255311       2.26424180      -1.69134025
C        2.05501561       1.47010768      -0.87783353
C        2.70148235       0.64540552       0.03506293
N        4.04393054       0.60951428       0.13084947
C        4.71942276       1.41115251      -0.69651189
C        0.59485743       1.50994555      -0.99154582
O        0.09454252       2.20742838      -1.85914845
N       -0.07340094       0.73806395      -0.20230125
C       -1.44513184       0.73227978      -0.18439939
S       -2.18071469      -0.84485055      -0.30081370
C       -3.65303065       0.01625825       0.00568412
N       -3.58246239       1.30541454       0.24208126
N       -2.25770391       1.72647688       0.16488955
O       -4.84727257      -0.58298489       0.04394029
H        2.42187899       2.93873599      -2.43184637
H        5.80458116       1.38738976      -0.62418621
H        2.15430273      -0.00979284       0.71248899
H       -5.44021013       0.16031068       0.23926447
19
Properties=species:S:1:pos:R:3 energy=-9.140256220563515 constraints="[\"10,9,8,6=140\"]" angle=140 pbc="F F F"
N        4.21058222       2.43740293      -1.32380656
C        2.86909134       2.49188822      -1.41148261
C        2.05828367       1.57418118      -0.75639811
C        2.69073712       0.59328739      -0.00181022
N        4.03203591       0.52707976       0.09360089
C        4.72081302       1.45627514      -0.57394140
C        0.59916348       1.64876946      -0.86971675
O        0.11514939       2.48480880      -1.61508171
N       -0.08046331       0.76250281      -0.22173304
C       -1.45328453       0.75213711      -0.19617518
S       -2.17217531      -0.83413226      -0.29912616
C       -3.65221076       0.00890597       0.01768840
N       -3.59504554       1.29887049       0.25070107
N       -2.27580992       1.73505652       0.16291613
O       -4.83887706      -0.60446944       0.06545529
H        2.45013567       3.29182030      -2.02252983
H        5.80515053       1.40892402      -0.50090233
H        2.13293500      -0.16678910       0.54472708
H       -5.43880075       0.13154413       0.26709061
19
Properties=species:S:1:pos:R:3 energy=-9.117680023825505 constraints="[\"10,9,8,6=150\"]" angle=150 pbc="F F F"
N        4.22850575       2.57354141      -1.02728457
C        2.88819468       2.66132353      -1.10641340
C        2.06228844       1.65389767      -0.62474896
C        2.67869372       0.54624923      -0.05473344
N        4.01854729       0.44554841       0.02985229
C        4.72243390       1.46840619      -0.46177768
C        0.60445689       1.76797677      -0.72563968
O        0.13848156       2.72561824      -1.32042409
N       -0.08767949       0.79366667      -0.23455123
C       -1.46167928       0.77465231      -0.20019097
S       -2.15839805      -0.82287371      -0.28952465
C       -3.64995609      -0.00173041       0.02815741
N       -3.61164192       1.29002654       0.25238026
N       -2.29931447       1.74537271       0.15803114
O       -4.82695473      -0.63284899       0.08274636
H        2.48271557       3.56242621      -1.56729771
H        5.80572780       1.39386513      -0.39633468
H        2.10882550      -0.29092099       0.34767127
H       -5.43708005       0.09461335       0.28493996
19
Properties=species:S:1:pos:R:3 energy=-9.089140996541008 constraints="[\"10,9,8,6=160\"]" angle=160 pbc="F F F"
N        4.29835286       2.60924964      -0.25150119
C        2.97189930       2.71837261      -0.44934041
C        2.09978296       1.68590457      -0.12862792
C        2.65537207       0.52981046       0.40694372
N        3.98073081       0.40743631       0.60912504
C        4.73208378       1.45756394       0.26849996
C        0.65806637       1.82478352      -0.35645269
O        0.25782384       2.83442648      -0.91095893
N       -0.07939328       0.82254520      -0.00477793
C       -1.45223168       0.78632692      -0.09383388
S       -2.11727151      -0.82755837      -0.07907335
C       -3.64437351      -0.01397970      -0.01195655
N       -3.64651532       1.29506071       0.06400735
N       -2.33749643       1.76936649       0.05541906
O       -4.81228310      -0.66400162      -0.00919660
H        2.61580860       3.65758356      -0.87350053
H        5.80399416       1.36573519       0.42956053
H        2.04701280      -0.33006389       0.68626581
H       -5.44968964       0.06608755       0.04618197
19
Properties=species:S:1:pos:R:3 energy=-9.062100772279834 constraints="[\"10,9,8,6=170\"]" angle=170 pbc="F F F"
N        4.29236709       2.65864766       0.02350561
C        2.96336629       2.80245744      -0.13044264
C        2.09150595       1.73190761       0.02355075
C        2.65078447       0.50022412       0.34390875
N        3.97862174       0.34274706       0.50010034
C        4.72918906       1.43425325       0.33132514
C        0.64632388       1.91079257      -0.15146207
O        0.24319199       3.00975474      -0.49184317
N       -0.08677398       0.86044954       0.03237171
C       -1.46126378       0.80840248      -0.04749987
S       -2.10032034      -0.81594575      -0.01558979
C       -3.64224009      -0.02850168      -0.01274885
N       -3.66887615       1.28204319       0.01122220
N       -2.36860334       1.78005476       0.01837782
O       -4.79844546      -0.69905935      -0.01778861
H        2.60518778       3.80118594      -0.38161669
H        5.80313569       1.31434470       0.45632693
H        2.04349962      -0.39391047       0.48250097
H       -5.44956479       0.02087938      -0.00527139
19
Properties=species:S:1:pos:R:3 energy=-9.049836873685406 constraints="[\"10,9,8,6=180\"]" angle=180 pbc="F F F"
N        4.28445772       2.67527972      -0.25134554
C        2.95092049       2.83800025      -0.17475317
C        2.08230643       1.75371391      -0.18316593
C        2.65009349       0.48800869      -0.27437977
N        3.98245620       0.31151788      -0.35158594
C        4.72920943       1.41843418      -0.33579420
C        0.63155442       1.95423907      -0.09869035
O        0.21770222       3.09805662      -0.02136618
N       -0.09440529       0.88257321      -0.11382735
C       -1.46998182       0.82140109      -0.04603750
S       -2.09600719      -0.80760308      -0.09361770
C       -3.64193512      -0.03698202       0.02368220
N       -3.67898387       1.27185427       0.08969922
N       -2.38460429       1.78351742       0.04815487
O       -4.79129307      -0.71871546       0.04943242
H        2.58655321       3.86333929      -0.10578041
H        5.80681686       1.28325313      -0.39786771
H        2.04617852      -0.41894960      -0.28772752
H       -5.44721986      -0.00632960       0.11808061
19
Properties=species:S:1:pos:R:3 energy=-9.062100772279834 constraints="[\"10,9,8,6=190\"]" angle=190 pbc="F F F"
N        4.29031835       2.66355618      -0.01971262
C        2.96114288       2.80642343       0.13360389
C        2.09011224       1.73526276      -0.02083631
C        2.65041326       0.50398339      -0.34096101
N        3.97843592       0.34744810      -0.49652179
C        4.72815173       1.43947909      -0.32735722
C        0.64472070       1.91312258       0.15349016
O        0.24065037       3.01179032       0.49370895
N       -0.08754750       0.86226749      -0.03072349
C       -1.46203826       0.80924793       0.04848915
S       -2.09993267      -0.81555010       0.01622820
C       -3.64240637      -0.02919460       0.01267159
N       -3.66995609       1.28133182      -0.01127575
N       -2.37003189       1.78026133      -0.01779553
O       -4.79814037      -0.70056842       0.01713963
H        2.60213934       3.80489177       0.38463435
H        5.80224240       1.32033219      -0.45184861
H        2.04382612      -0.39057576      -0.47986858
H       -5.44976170       0.01891085       0.00433097
19
Properties=species:S:1:pos:R:3 energy=-9.089140996541008 constraints="[\"10,9,8,6=200\"]" angle=200 pbc="F F F"
N        4.29620745       2.61415465       0.25529563
C        2.96958271       2.72233567       0.45250336
C        2.09834893       1.68926129       0.13134501
C        2.65501013       0.53357473      -0.40399295
N        3.98055148       0.41214189      -0.60554367
C        4.73099994       1.46279005      -0.26453001
C        0.65642585       1.82711607       0.35848399
O        0.25520551       2.83646064       0.91282679
N       -0.08015782       0.82436733       0.00642862
C       -1.45301275       0.78717745       0.09482686
S       -2.11690600      -0.82717648       0.07970332
C       -3.64454966      -0.01467411       0.01187867
N       -3.64757921       1.29436660      -0.06404983
N       -2.33889972       1.76959607      -0.05482219
O       -4.81199865      -0.66552023       0.00854198
H        2.61262624       3.66128308       0.87651922
H        5.80305180       1.37172253      -0.42508037
H        2.04739169      -0.32672098      -0.68362993
H       -5.44989385       0.06412037      -0.04712118
19
Properties=species:S:1:pos:R:3 energy=-9.117680023825505 constraints="[\"10,9,8,6=210\"]" angle=210 pbc="F F F"
N        4.30554582       2.50699703       0.55195427
C        2.97943712       2.57895288       0.76796021
C        2.10738503       1.61773196       0.27338068
C        2.66203896       0.57364734      -0.45737581
N        3.98712041       0.48935411      -0.67999030
C        4.73873668       1.46426660      -0.16229020
C        0.66649578       1.71309490       0.52480235
O        0.26343750       2.60644381       1.25105916
N       -0.07318595       0.78646425       0.01125181
C       -1.44415376       0.76276372       0.10777959
S       -2.13456388      -0.83999730       0.10970463
C       -3.64698691      -0.00086225       0.01828986
N       -3.62603809       1.30668310      -0.08298353
N       -2.30916202       1.75853188      -0.07239556
O       -4.82593844      -0.63069395       0.01705303
H        2.62347471       3.42917793       1.35038779
H        5.81039471       1.40267218      -0.33869892
H        2.05307913      -0.22424453      -0.88172198
H       -5.45022037       0.10926235      -0.05417485
19
Properties=species:S:1:pos:R:3 energy=-9.140256220563515 constraints="[\"10,9,8,6=220\"]" angle=220 pbc="F F F"
N        4.31663777       2.33615828       0.84490459
C        2.98975615       2.37563871       1.06417679
C        2.11646815       1.52107871       0.40400492
C        2.67021355       0.61999131      -0.49763840
N        3.99611887       0.56958253      -0.72568009
C        4.74915828       1.43380696      -0.04049521
C        0.67500749       1.57755681       0.66176347
O        0.26752815       2.33603642       1.52632642
N       -0.06687950       0.75423914      -0.00080713
C       -1.43597517       0.73984230       0.10298934
S       -2.14882492      -0.85237459       0.12113479
C       -3.64851548       0.01014867       0.02849119
N       -3.60803759       1.31677197      -0.08409110
N       -2.28451796       1.74877933      -0.08042972
O       -4.83705130      -0.60143061       0.03490015
H        2.63414094       3.11136060       1.78601129
H        5.82146671       1.39880777      -0.22020152
H        2.05977377      -0.08686622      -1.05913472
H       -5.45015084       0.14767817      -0.03739364
19
Properties=species:S:1:pos:R:3 energy=-9.153990350228206 constraints="[\"10,9,8,6=230\"]" angle=230 pbc="F F F"
N        4.32768075       2.10339434       1.11361743
C        2.99939291       2.11616953       1.32711201
C        2.12486485       1.40063633       0.51981939
C        2.67850613       0.66925052      -0.52420602
N        4.00587486       0.64739782      -0.74836008
C        4.76023327       1.36864753       0.08481615
C        0.68200433       1.42429088       0.77314552
O        0.26893616       2.03388450       1.74643995
N       -0.06142007       0.72904028      -0.02009206
C       -1.42881529       0.72016691       0.09014562
S       -2.15889826      -0.86343841       0.12383362
C       -3.64869682       0.01786995       0.04035537
N       -3.59350169       1.32396472      -0.07738553
N       -2.26504595       1.74036347      -0.08483559
O       -4.84454466      -0.57915286       0.05712411
H        2.64363265       2.71527310       2.16573080
H        5.83370879       1.35572102      -0.09081879
H        2.06673306       0.07988792      -1.20683467
H       -5.44907748       0.17732948      -0.00987896
19
Properties=species:S:1:pos:R:3 energy=-9.159529227414067 constraints="[\"10,9,8,6=240\"]" angle=240 pbc="F F F"
N        4.33779628       1.81522584       1.34108146
C        3.00797076       1.80757362       1.54459908
C        2.13219372       1.25902303       0.61700295
C        2.68596530       0.71893924      -0.53756438
N        4.01494116       0.71973002      -0.75324111
C        4.77057579       1.27026544       0.20036167
C        0.68771521       1.25666818       0.86051011
O        0.26911734       1.70718409       1.91502772
N       -0.05706932       0.71085990      -0.04003630
C       -1.42297255       0.70449338       0.07630576
S       -2.16513759      -0.87274902       0.12484258
C       -3.64772609       0.02229901       0.05228059
N       -3.58218761       1.32793860      -0.06980466
N       -2.25038641       1.73291224      -0.08942496
O       -4.84870563      -0.56400493       0.07988749
H        2.65195812       2.25202710       2.47436520
H        5.84533020       1.27445873       0.03228582
H        2.07294466       0.26980236      -1.31866673
H       -5.44707375       0.19779633       0.01866132
19
Properties=species:S:1:pos:R:3 energy=-9.160468020157433 constraints="[\"10,9,8,6=250\"]" angle=250 pbc="F F F"
N        4.34723855       1.48135111       1.51304478
C        3.01614069       1.45931754       1.70646557
C        2.13846714       1.10008312       0.69216304
C        2.69152400       0.76733203      -0.53860565
N        4.02184591       0.78498291      -0.74523715
C        4.77937214       1.14279651       0.29472774
C        0.69264525       1.07844260       0.92503225
O        0.26999993       1.36313309       2.03459276
N       -0.05428290       0.69966775      -0.05518171
C       -1.41886975       0.69338103       0.06780520
S       -2.16831157      -0.87989391       0.13004750
C       -3.64630244       0.02358371       0.06271512
N       -3.57436326       1.32848198      -0.06710123
N       -2.24060914       1.72607146      -0.09703778
O       -4.85042887      -0.55582185       0.09942201
H        2.66059656       1.73559534       2.69943315
H        5.85519389       1.15932031       0.13442092
H        2.07677159       0.47642734      -1.39016218
H       -5.44491639       0.20903788       0.03932218
19
Properties=species:S:1:pos:R:3 energy=-9.162652277940332 constraints="[\"10,9,8,6=260\"]" angle=260 pbc="F F F"
N        4.35700153       1.11437159       1.61744465
C        3.02524137       1.08328114       1.80440284
C        2.14394065       0.92879833       0.74258046
C        2.69395938       0.81302236      -0.52845520