19
Properties=species:S:1:pos:R:3 energy=-8.971748365406034 constraints="[\"9,8,6,2=0\"]" angle=0 pbc="F F F"
N       -0.12775817      -3.74808183       0.93782338
C        0.14869803      -2.43814566       0.82035854
C        0.12321356      -1.80699259      -0.41127437
C       -0.14761054      -2.57429788      -1.52814982
N       -0.42931541      -3.88534616      -1.42898542
C       -0.41101906      -4.40262975      -0.19509981
C        0.46149564      -0.40317044      -0.54894093
O        1.59021485      -0.16866351      -0.94190261
N       -0.38371709       0.55389590      -0.31606670
C       -1.70800415       0.56739819       0.08577975
S       -2.67075725      -0.89938451       0.15117069
C       -3.94901713       0.15050117       0.65673294
N       -3.69266577       1.43175911       0.75211244
N       -2.36754002       1.67718816       0.40501580
O       -5.17674374      -0.28939069       0.94743980
H        0.38736231      -1.89211890       1.73305873
H       -0.63771520      -5.46271668      -0.10488873
H       -0.14863913      -2.13848387      -2.52693804
H       -5.63794674       0.53065976       1.18619694
19
Properties=species:S:1:pos:R:3 energy=-9.022024390350122 constraints="[\"9,8,6,2=10\"]" angle=10 pbc="F F F"
N       -0.20444897      -3.39334891      -1.39615875
C        0.01663272      -2.12050885      -1.02691625
C        0.15845371      -1.77280482       0.30714398
C        0.10152106      -2.78460249       1.24828137
N       -0.12451064      -4.06260005       0.89561259
C       -0.27126670      -4.29855496      -0.41280799
C        0.42684548      -0.40281765       0.71875712
O        1.42264348      -0.23027924       1.39965583
N       -0.37651225       0.57368293       0.43106738
C       -1.64940212       0.55785874      -0.10152616
S       -2.71506601      -0.80453346       0.19858676
C       -3.87530552       0.12070390      -0.69219050
N       -3.51860247       1.30495837      -1.12798482
N       -2.20446977       1.57222957      -0.75586786
O       -5.11206916      -0.31780254      -0.94414565
H        0.07605715      -1.37325023      -1.81867888
H       -0.45326367      -5.32975856      -0.70744779
H        0.23075193      -2.57747416       2.31045588
H       -5.49476645       0.42089087      -1.44416826
19
Properties=species:S:1:pos:R:3 energy=-9.06926552965167 constraints="[\"9,8,6,2=20\"]" angle=20 pbc="F F F"
N        0.02527806      -3.11385073      -1.74576963
C        0.15708187      -1.89140727      -1.20370528
C        0.25561177      -1.71914353       0.16867971
C        0.24626107      -2.85195391       0.96304086
N        0.10932787      -4.08165090       0.43601501
C        0.00103335      -4.14648172      -0.89540457
C        0.42174688      -0.40241290       0.77162185
O        1.32251234      -0.28438045       1.58412499
N       -0.36108352       0.58591931       0.47149033
C       -1.62054877       0.56433548      -0.08964238
S       -2.66193566      -0.82754481       0.15355891
C       -3.81820008       0.09233744      -0.74851993
N       -3.47523445       1.29228034      -1.15225748
N       -2.17688813       1.57924617      -0.74136958
O       -5.03856764      -0.36629826      -1.04128947
H        0.18113349      -1.04218710      -1.88730515
H       -0.10871248      -5.13738634      -1.33058594
H        0.34145021      -2.78461998       2.04669817
H       -5.42324116       0.37369956      -1.53785960
19
Properties=species:S:1:pos:R:3 energy=-9.10078202655875 constraints="[\"9,8,6,2=30\"]" angle=30 pbc="F F F"
N        0.31561118      -2.81001605      -2.02395497
C        0.33905178      -1.65626438      -1.33523022
C        0.37593074      -1.64565873       0.05152778
C        0.41688666      -2.86573225       0.70358462
N        0.38823959      -4.02839417       0.02838374
C        0.33490858      -3.93767574      -1.30469172
C        0.41832877      -0.40429261       0.81773371
O        1.22805375      -0.34447567       1.72682270
N       -0.34271830       0.59712940       0.50923371
C       -1.59190243       0.57220885      -0.07289080
S       -2.59110484      -0.86296590       0.07532943
C       -3.75629278       0.06496726      -0.80726006
N       -3.44219930       1.29278731      -1.14612081
N       -2.16227984       1.59869407      -0.69318253
O       -4.95507379      -0.41570197      -1.14965887
H        0.32714630      -0.73113467      -1.91247265
H        0.31293396      -4.87327661      -1.85920968
H        0.46481754      -2.92585861       1.79080165
H       -5.35153526       0.33511558      -1.62004366
19
Properties=species:S:1:pos:R:3 energy=-9.11416023132248 constraints="[\"9,8,6,2=40\"]" angle=40 pbc="F F F"
N        0.64396903      -2.48242395      -2.22591296
C        0.54392180      -1.41355253      -1.41710799
C        0.51313671      -1.55460962      -0.03674630
C        0.61437928      -2.83454022       0.48065398
N        0.70925301      -3.91364782      -0.31611715
C        0.71588224      -3.67875416      -1.63237814
C        0.41405633      -0.40859743       0.86357944
O        1.13456335      -0.40907192       1.84674703
N       -0.32225214       0.60778298       0.54907825
C       -1.56161183       0.57986937      -0.05208252
S       -2.51003853      -0.89582330      -0.00855274
C       -3.68848039       0.03997545      -0.86528711
N       -3.40960017       1.29401623      -1.13186019
N       -2.15025843       1.61743567      -0.63542110
O       -4.86248459      -0.46122139      -1.26008851
H        0.48863467      -0.43374497      -1.89274468
H        0.79397954      -4.54577240      -2.28468628
H        0.61102730      -3.01314128       1.55586015
H       -5.27441772       0.30012568      -1.69924494
19
Properties=species:S:1:pos:R:3 energy=-9.108972380988485 constraints="[\"9,8,6,2=50\"]" angle=50 pbc="F F F"
N        1.00087710      -2.13934586      -2.34692069
C        0.76448042      -1.16827734      -1.44772135
C        0.66311646      -1.45021052      -0.09192637
C        0.83515528      -2.76559935       0.30417347
N        1.06649718      -3.74796232      -0.58442747
C        1.13524713      -3.38056862      -1.86803963
C        0.40762865      -0.41596209       0.90891355
O        1.03842947      -0.47696294       1.95013167
N       -0.30150601       0.61675222       0.59092205
C       -1.53125551       0.58692448      -0.02783308
S       -2.42434627      -0.92182727      -0.09151433
C       -3.61769021       0.02021327      -0.92076479
N       -3.37693700       1.29562793      -1.11360897
N       -2.13953194       1.63348363      -0.57345179
O       -4.76503104      -0.49787792      -1.36858747
H        0.65764333      -0.15294571      -1.83117859
H        1.32386019      -4.16841657      -2.59402222
H        0.77879531      -3.05343146       1.35392041
H       -5.19404328       0.27211111      -1.77514908
19
Properties=species:S:1:pos:R:3 energy=-9.086205432449576 constraints="[\"9,8,6,2=60\"]" angle=60 pbc="F F F"
N        1.37939791      -1.78985051      -2.38369501
C        0.99583939      -0.92617095      -1.42703254
C        0.82203474      -1.33738959      -0.11158805
C        1.07450539      -2.66676563       0.18217214
N        1.45321896      -3.54256973      -0.76525881
C        1.58515956      -3.05475852      -2.00282887
C        0.39828078      -0.42725282       0.95169626
O        0.93589779      -0.54855606       2.03891126
N       -0.28293666       0.62221747       0.63345329
C       -1.50360047       0.59286808      -0.00104791
S       -2.34099119      -0.93918157      -0.17010788
C       -3.54910052       0.00846948      -0.97154258
N       -3.34620217       1.29938236      -1.09214684
N       -2.13080393       1.64677242      -0.50962119
O       -4.66960241      -0.52099280      -1.47105670
H        0.83003874       0.10759249      -1.73230618
H        1.89305904      -3.75557232      -2.77574071
H        0.96436615      -3.05424027       1.19495813
H       -5.11569087       0.25584230      -1.84494090
19
Properties=species:S:1:pos:R:3 energy=-9.048499162054569 constraints="[\"9,8,6,2=70\"]" angle=70 pbc="F F F"
N        1.77334614      -1.44124155      -2.33394658
C        1.23452800      -0.69171813      -1.35566350
C        0.98594481      -1.22094372      -0.09487301
C        1.32559709      -2.54621241       0.12005311
N        1.85986172      -3.30849928      -0.85029022
C        2.05638703      -2.71180526      -2.03005674
C        0.38614744      -0.44319559       0.98900362
O        0.82388813      -0.62555965       2.11193190
N       -0.26905621       0.62213523       0.67440237
C       -1.48157063       0.59666072       0.02647062
S       -2.26859531      -0.94788746      -0.24010792
C       -3.48921527       0.00618303      -1.01492520
N       -3.31985643       1.30652433      -1.06868987
N       -2.12466527       1.65708714      -0.44742564
O       -4.58510333      -0.52777173      -1.56203473
H        1.00492202       0.34595946      -1.60024496
H        2.49012081      -3.32005752      -2.82078049
H        1.16079360      -3.02415090       1.08567511
H       -5.04625008       0.25458813      -1.90487354
19
Properties=species:S:1:pos:R:3 energy=-9.000874070126676 constraints="[\"9,8,6,2=80\"]" angle=80 pbc="F F F"
N        2.17627693      -1.09757723      -2.19491371
C        1.47849035      -0.46648668      -1.23322675
C        1.15043255      -1.10459065      -0.04231735
C        1.57753268      -2.41229726       0.11917842
N        2.27108457      -3.05666954      -0.83578006
C        2.53584187      -2.36039456      -1.94537935
C        0.37271252      -0.46338534       1.01775535
O        0.70112468      -0.70960738       2.16556917
N       -0.26130995       0.61543303       0.71040018
C       -1.46697879       0.59713386       0.05161370
S       -2.21547641      -0.95016713      -0.29625432
C       -3.44411037       0.01210197      -1.04826160
N       -3.29955060       1.31662845      -1.04620728
N       -2.12060279       1.66392079      -0.39279605
O       -4.52037517      -0.51956166      -1.63517308
H        1.18579108       0.56435997      -1.43558828
H        3.09836913      -2.87263006      -2.72288998
H        1.35552196      -2.97312762       1.02703140
H       -4.99238207       0.26757743      -1.95126783
19
Properties=species:S:1:pos:R:3 energy=-8.950778728771457 constraints="[\"9,8,6,2=90\"]" angle=90 pbc="F F F"
N        2.57734432      -0.76079957      -1.96293336
C        1.72370580      -0.24932087      -1.05710391
C        1.31001378      -0.99031858       0.04475282
C        1.81622015      -2.27321568       0.17582208
N        2.66586794      -2.79841803      -0.72449969
C        3.00433628      -2.00873172      -1.74802988
C        0.36058339      -0.48513708       1.03631360
O        0.56833699      -0.80084583       2.19531779
N       -0.25895927       0.60366448       0.73814441
C       -1.45941621       0.59416807       0.07126546
S       -2.18452845      -0.94968064      -0.33579020
C       -3.41606116       0.02227573      -1.07062605
N       -3.28558603       1.32765104      -1.02781599
N       -2.11760241       1.66727239      -0.35102238
O       -4.47928643      -0.50250920      -1.68685485
H        1.37558084       0.76904957      -1.23304881
H        3.69305535      -2.42404720      -2.48051103
H        1.53308787      -2.91170945       1.01258880
H       -4.95710421       0.28905457      -1.98249630
19
Properties=species:S:1:pos:R:3 energy=-8.906540365679488 constraints="[\"9,8,6,2=100\"]" angle=100 pbc="F F F"
N        2.95723010      -0.43492264      -1.63747995
C        1.95924088      -0.04007332      -0.82529999
C        1.45804212      -0.87915747       0.16456218
C        2.03000337      -2.13558323       0.28308397
N        3.02418852      -2.54457625      -0.52488105
C        3.43834772      -1.66625012      -1.44279754
C        0.35223771      -0.50417464       1.04573508
O        0.42586397      -0.89984059       2.19655730
N       -0.25956890       0.59079928       0.75667487
C       -1.45679595       0.58931111       0.08478487
S       -2.17016395      -0.94889304      -0.36228567
C       -3.40185145       0.03276771      -1.08395146
N       -3.27770768       1.33760530      -1.01332691
N       -2.11600658       1.66824120      -0.32139726
O       -4.45763419      -0.48366331      -1.71984106
H        1.56682101       0.96458954      -0.98607115
H        4.24387952      -1.98715151      -2.09967974
H        1.68460894      -2.84752354       1.03265585
H       -4.93796178       0.31190998      -2.00019768
19
Properties=species:S:1:pos:R:3 energy=-8.87619450250631 constraints="[\"9,8,6,2=110\"]" angle=110 pbc="F F F"
N        3.29381857      -0.12802188      -1.22547776
C        2.17063480       0.15806574      -0.54093301
C        1.58859632      -0.77192454       0.31442818
C        2.21263242      -2.00337735       0.43434448
N        3.33231449      -2.30392693      -0.24732280
C        3.81660306      -1.34366015      -1.04027362
C        0.34989368      -0.51514335       1.04883024
O        0.26950624      -1.01232927       2.15929161
N       -0.26068621       0.58193256       0.76689591
C       -1.45734199       0.58510272       0.09398474
S       -2.16266341      -0.94773035      -0.38358842
C       -3.39639191       0.04169251      -1.09100871
N       -3.27702470       1.34565981      -0.99842224
N       -2.11858342       1.66858930      -0.29744846
O       -4.44777819      -0.46736027      -1.74015466
H        1.74421587       1.14986602      -0.69473539
H        4.72345694      -1.57661134      -1.59408408
H        1.80991574      -2.78310068       1.08077110
H       -4.93088507       0.33131568      -2.00642420
19
Properties=species:S:1:pos:R:3 energy=-8.937472362061134 constraints="[\"9,8,6,2=120\"]" angle=120 pbc="F F F"
N        3.51760290       0.07466127      -0.88435904
C        2.28545525       0.24050013      -0.36845233
C        1.73330026      -0.69201124       0.50527292
C        2.51273429      -1.79189117       0.83242661
N        3.74679773      -1.96723903       0.32677230
C        4.18153952      -1.02305144      -0.51209478
C        0.41001996      -0.52980051       1.11325116
O       -0.14592767      -1.53815683       1.51782535
N       -0.24903298       0.51829165       0.74432658
C       -1.48051143       0.53935692       0.12027167
S       -2.17939588      -0.92606444      -0.55012627
C       -3.44158992       0.12642585      -1.09393160
N       -3.33148809       1.40968258      -0.84276774
N       -2.15797861       1.65544402      -0.13637006
O       -4.50457955      -0.30843442      -1.77812287
H        1.75019831       1.14149447      -0.66965618
H        5.17781532      -1.15773627      -0.92761069
H        2.15713156      -2.55838097       1.52090206
H       -4.99858090       0.51262865      -1.93092401
19
Properties=species:S:1:pos:R:3 energy=-9.058114848771186 constraints="[\"9,8,6,2=130\"]" angle=130 pbc="F F F"
N        3.71107620       0.38390528      -0.38380407
C        2.40982957       0.43000103      -0.04209586
C        1.81392578      -0.59564399       0.68640703
C        2.62249802      -1.66056893       1.05723785
N        3.92500484      -1.71652018       0.72566288
C        4.39890906      -0.68908509       0.01587264
C        0.40795999      -0.56388917       1.10019442
O       -0.10486036      -1.63794128       1.36998392
N       -0.25851672       0.48496829       0.74642366
C       -1.48632999       0.52213434       0.11472570
S       -2.20110451      -0.92527319      -0.57787676
C       -3.45335601       0.14757738      -1.10404384
N       -3.33261540       1.42484269      -0.82906419
N       -2.15696469       1.64756911      -0.11870882
O       -4.52080303      -0.26590497      -1.79455209
H        1.85394249       1.31064583      -0.36529858
H        5.45085066      -0.72698334      -0.25861538
H        2.23489272      -2.49570798       1.64052684
H       -5.00745703       0.56206986      -1.93288813
19
Properties=species:S:1:pos:R:3 energy=-9.174582292854728 constraints="[\"9,8,6,2=140\"]" angle=140 pbc="F F F"
N        3.82364326       0.65680861       0.18535213
C        2.48685458       0.60415256       0.33574239
C        1.86204529      -0.51004919       0.88879322
C        2.67758602      -1.55845337       1.29036530
N        4.01474389      -1.51645690       1.14919101
C        4.51637537      -0.40805150       0.59800221
C        0.41210172      -0.58898854       1.08982865
O       -0.06295277      -1.70354265       1.23401663
N       -0.26273009       0.45671159       0.74004784
C       -1.48781303       0.50567214       0.10209048
S       -2.22864720      -0.93096811      -0.58620774
C       -3.46620941       0.16009680      -1.10898933
N       -3.32724969       1.43481565      -0.83154393
N       -2.14661719       1.63976019      -0.12419821
O       -4.54206494      -0.23746047      -1.79582935
H        1.92590337       1.47776704       0.00233479
H        5.59676455      -0.36626976       0.47810281
H        2.26683627      -2.46031724       1.74404401
H       -5.01701810       0.59760396      -1.93212729
19
Properties=species:S:1:pos:R:3 energy=-9.277813303484479 constraints="[\"9,8,6,2=150\"]" angle=150 pbc="F F F"
N        3.84087818       0.88084593       0.79895441
C        2.50196502       0.75021508       0.74620208
C        1.87430568      -0.44023722       1.10178328
C        2.68732583      -1.48269470       1.52385748
N        4.02596105      -1.36359122       1.58429993
C        4.53185382      -0.18435580       1.21355865
C        0.41806680      -0.60676867       1.07452699
O       -0.01199052      -1.74786602       1.10828317
N       -0.26464364       0.43667490       0.73171544
C       -1.48633008       0.49431121       0.08678075
S       -2.25579892      -0.93745206      -0.58029552
C       -3.47744318       0.16777336      -1.11022948
N       -3.31861197       1.44234042      -0.84352100
N       -2.13240622       1.63531272      -0.14223015
O       -4.56266562      -0.21952309      -1.78815816
H        1.94152980       1.62357045       0.41120739
H        5.61374020      -0.07975400       1.25764441
H        2.27297047      -2.44318646       1.82985305
H       -5.02506323       0.62154029      -1.93056625
19
Properties=species:S:1:pos:R:3 energy=-9.358587847465232 constraints="[\"9,8,6,2=160\"]" angle=160 pbc="F F F"
N        3.75836823       1.04142157       1.43627588
C        2.45003976       0.85781521       1.17711920
C        1.84982483      -0.38988758       1.32026611
C        2.65630044      -1.43446548       1.75014384
N        3.96413688      -1.26316993       2.01489654
C        4.44615711      -0.02985511       1.84026582
C        0.42497358      -0.61609386       1.05936061
O        0.04080233      -1.77211995       0.99715681
N       -0.26394044       0.42532673       0.72177312
C       -1.48193694       0.48803250       0.06959382
S       -2.28076044      -0.94356418      -0.56260365
C       -3.48610765       0.17126421      -1.10916128
N       -3.30686144       1.44746611      -0.86452264
N       -2.11488482       1.63401956      -0.17137569
O       -4.58101108      -0.21099406      -1.77427224
H        1.89164082       1.73562967       0.85044236
H        5.50321333       0.11734971       2.05080476
H        2.26170611      -2.43996688       1.89538796
H       -5.03061070       0.63462904      -1.93001430
19
Properties=species:S:1:pos:R:3 energy=-9.409933279795242 constraints="[\"9,8,6,2=170\"]" angle=170 pbc="F F F"
N        3.57564920       1.12995734       2.07404011
C        2.32805552       0.91925683       1.61390566
C        1.78880927      -0.36177669       1.53832658
C        2.59115498      -1.41206418       1.96254078
N        3.83867226      -1.21421081       2.42567478
C        4.26488598       0.05121651       2.45490798
C        0.43080888      -0.61856381       1.04861470
O        0.08858073      -1.78060178       0.90642720
N       -0.26045606       0.42129591       0.71040031
C       -1.47455206       0.48603754       0.05077333
S       -2.30397832      -0.94836950      -0.53394845
C       -3.49176748       0.17198326      -1.10684565
N       -3.29072333       1.45081852      -0.89539813
N       -2.09285920       1.63529151      -0.21193767
O       -4.59664930      -0.20917069      -1.75590038
H        1.76835143       1.80284613       1.30551547
H        5.27290959       0.22015285       2.82734982
H        2.24278791      -2.44451219       1.94033695
H       -5.03253560       0.63956470      -1.93231756
19
Properties=species:S:1:pos:R:3 energy=-9.427528976944313 constraints="[\"9,8,6,2=180\"]" angle=180 pbc="F F F"
N        3.29530224       1.14489502      -2.68712124
C        2.13554750       0.93025089      -2.03788728
C        1.69293651      -0.35737538      -1.74858593
C        2.49908204      -1.41053650      -2.15845632
N        3.65993573      -1.20888060      -2.80785114
C        3.99588353       0.06318142      -3.03758636
C        0.43434311      -0.61866611      -1.04304419
O        0.12843292      -1.78064813      -0.83372198
N       -0.25414996       0.42081190      -0.69781689
C       -1.46406112       0.48627639      -0.03047227
S       -2.32672210      -0.95093823       0.49645769
C       -3.49446768       0.17217865       1.10404326
N       -3.26893807       1.45323285       0.93509125
N       -2.06495261       1.63749114       0.26242212
O       -4.60994805      -0.20931025       1.73450862
H        1.56681628       1.81617563      -1.75364798
H        4.93316746       0.23525590      -3.56223222
H        2.22524976      -2.44867023      -1.97115419
H       -5.03030568       0.64123920       1.93782127
19
Properties=species:S:1:pos:R:3 energy=-9.409933279795242 constraints="[\"9,8,6,2=190\"]" angle=190 pbc="F F F"
N        3.57542813       1.13039454      -2.07405968
C        2.32788306       0.91959807      -1.61383737
C        1.78867531      -0.36145938      -1.53838945
C        2.59100666      -1.41166692      -1.96282869
N        3.83847535      -1.21371717      -2.42605238
C        4.26465534       0.05172474      -2.45514596
C        0.43072746      -0.61834937      -1.04858582
O        0.08854118      -1.78041592      -0.90653118
N       -0.26053100       0.42144533      -0.71015837
C       -1.47456628       0.48606348      -0.05040754
S       -2.30390220      -0.94844698       0.53418868
C       -3.49166467       0.17179525       1.10735728
N       -3.29067180       1.45066548       0.89607254
N       -2.09287674       1.63526495       0.21252520
O       -4.59647586      -0.20947800       1.75646217
H        1.76818646       1.80312982      -1.30526874
H        5.27263963       0.22073870      -2.82765898
H        2.24266696      -2.44412661      -1.94073871
H       -5.03236628       0.63922162       1.93304115
19
Properties=species:S:1:pos:R:3 energy=-9.358587847465232 constraints="[\"9,8,6,2=200\"]" angle=200 pbc="F F F"
N        3.75820955       1.04177260      -1.43632530
C        2.44991006       0.85809736      -1.17707117
C        1.84971215      -0.38959978      -1.32033874
C        2.65617273      -1.43409681      -1.75044109
N        3.96397997      -1.26273160      -2.01529294
C        4.44598650      -0.02942981      -1.84053245
C        0.42489108      -0.61587804      -1.05933084
O        0.04075400      -1.77192237      -0.99725507
N       -0.26401654       0.42547768      -0.72153027
C       -1.48195298       0.48806093      -0.06922705
S       -2.28068173      -0.94364516       0.56284237
C       -3.48600461       0.17107601       1.10967228
N       -3.30681274       1.44731706       0.86519811
N       -2.11490616       1.63399823       0.17196512
O       -4.58083586      -0.21130361       1.77483230
H        1.89152048       1.73585170      -0.85021683
H        5.50301922       0.11783083      -2.05115029
H        2.26158930      -2.43958722      -1.89579086
H       -5.03044148       0.63428634       1.93073700
19
Properties=species:S:1:pos:R:3 energy=-9.277813303484479 constraints="[\"9,8,6,2=210\"]" angle=210 pbc="F F F"
N        3.84078361       0.88110839      -0.79903445
C        2.50187864       0.75043725      -0.74617425
C        1.87421487      -0.43997987      -1.10186538
C        2.68722067      -1.48235743      -1.52416452
N        4.02584727      -1.36321258      -1.58471646
C        4.53174617      -0.18401747      -1.21385534
C        0.41798265      -0.60655086      -1.07449523
O       -0.01204993      -1.74765393      -1.10837299
N       -0.26472096       0.43682726      -0.73147091
C       -1.48634790       0.49434197      -0.08641266
S       -2.25571869      -0.93753494       0.58053275
C       -3.47733996       0.16758523       1.11073916
N       -3.31856513       1.44219407       0.84419685
N       -2.13243034       1.63529509       0.14282142
O       -4.56248889      -0.21983416       1.78871527
H        1.94145369       1.62373127      -0.41100251
H        5.61362582      -0.07938290      -1.25802840
H        2.27285993      -2.44281583      -1.83025748
H       -5.02489363       0.62119764       1.93128657
19
Properties=species:S:1:pos:R:3 energy=-9.174582292854728 constraints="[\"9,8,6,2=220\"]" angle=220 pbc="F F F"
N        3.82361213       0.65698344      -0.18546239
C        2.48681054       0.60431603      -0.33573390
C        1.86197630      -0.50982241      -0.88888409
C        2.67750477      -1.55814953      -1.29068219
N        4.01467494      -1.51614037      -1.14962821
C        4.51633133      -0.40780104      -0.59832924
C        0.41201568      -0.58876870      -1.08979380
O       -0.06302513      -1.70331394      -1.23409535
N       -0.26280869       0.45686517      -0.73980064
C       -1.48783258       0.50570504      -0.10172064
S       -2.22856657      -0.93105116       0.58644333
C       -3.46610611       0.15990912       1.10949686
N       -3.32720380       1.43467079       0.83221952
N       -2.14664312       1.63974478       0.12479146
O       -4.54188704      -0.23777213       1.79638196
H        1.92586943       1.47786937      -0.00214916
H        5.59673081      -0.36600988      -0.47852593
H        2.26673425      -2.45995896      -1.74445030
H       -5.01684776       0.59726129       1.93284345
19
Properties=species:S:1:pos:R:3 energy=-9.058114848771186 constraints="[\"9,8,6,2=230\"]" angle=230 pbc="F F F"
N        3.71110550       0.38399646       0.38366564
C        2.40982548       0.43010890       0.04208686
C        1.81387800      -0.59544715      -0.68650552
C        2.62244128      -1.66029958      -1.05756406
N        3.92498078      -1.71626604      -0.72612005
C        4.39892688      -0.68892025      -0.01622854
C        0.40787236      -0.56366795      -1.10015562
O       -0.10494717      -1.63769427      -1.37004936
N       -0.25859661       0.48512289      -0.74617284
C       -1.48635113       0.52216908      -0.11435366
S       -2.20102480      -0.92535439       0.57811056
C       -3.45325288       0.14739071       1.10454838
N       -3.33256950       1.42469804       0.82973887
N       -2.15699133       1.64755423       0.11930415
O       -4.52062455      -0.26621593       1.79509865
H        1.85394736       1.31069415       0.36546725
H        5.45089532      -0.72683174       0.25815476
H        2.23480135      -2.49536520      -1.64093514
H       -5.00728575       0.56172731       1.93359833
19
Properties=species:S:1:pos:R:3 energy=-8.937472362061134 constraints="[\"9,8,6,2=240\"]" angle=240 pbc="F F F"
N        3.51768698       0.07467659       0.88419500
C        2.28548654       0.24055851       0.36842823
C        1.73327194      -0.69184219      -0.50537745
C        2.51270209      -1.79165642      -0.83276115
N        3.74681759      -1.96704584      -0.32724833
C        4.18161539      -1.02296685       0.51171195
C        0.40993025      -0.52957750      -1.11320768
O       -0.14603094      -1.53788992      -1.51787267
N       -0.24911349       0.51844609      -0.74407195
C       -1.48053351       0.53939255      -0.11989776
S       -2.17931882      -0.92614116       0.55035791
C       -3.44148722       0.12624096       1.09443204
N       -3.33144048       1.40953606       0.84344014
N       -2.15800372       1.65542659       0.13696658
O       -4.50440160      -0.30874255       1.77866187
H        1.75023591       1.14149686       0.66981072
H        5.17793374      -1.15768628       0.92711462
H        2.15705318      -2.55805704      -1.52131202
H       -4.99840860       0.51228671       1.93162634
19
Properties=species:S:1:pos:R:3 energy=-8.87619450250631 constraints="[\"9,8,6,2=250\"]" angle=250 pbc="F F F"
N        3.29393989      -0.12806049       1.22530597
C        2.17068448       0.15809689       0.54090795
C        1.58858799      -0.77178608      -0.31453043
C        2.21264292      -2.00320654      -0.43468068
N        3.33239672      -2.30382557       0.24683814
C        3.81673665      -1.34365963       1.03987969
C        0.34980972      -0.51493086      -1.04877902
O        0.26932958      -1.01196094      -2.15930344
N       -0.26077041       0.58209000      -0.76663111
C       -1.45736271       0.58513521      -0.09360650
S       -2.16260149      -0.94778300       0.38381542
C       -3.39628741       0.04150909       1.09149282
N       -3.27696087       1.34549246       0.99908040
N       -2.11859370       1.66854995       0.29804313
O       -4.44759992      -0.46766170       1.74066570
H        1.74425579       1.14986485       0.69489156
H        4.72364853      -1.57666731       1.59357140
H        1.80988429      -2.78284786      -1.08118008
H       -4.93070121       0.33096456       2.00709437
19
Properties=species:S:1:pos:R:3 energy=-8.906540365679488 constraints="[\"9,8,6,2=260\"]" angle=260 pbc="F F F"
N        2.95739785      -0.43502806       1.63729632
C        1.95932226      -0.04008777       0.82526674
C        1.45805057      -0.87904351      -0.16466735
C        2.03003139      -2.13543839      -0.28342172
N        3.02430286      -2.54452188       0.52439128