19
Properties=species:S:1:pos:R:3 energy=-9.040714257244433 constraints="[\"9,8,6,2=0\"]" angle=0 pbc="F F F"
N       -0.06447286      -3.61077229       1.47895826
C        0.22757809      -2.32451786       1.22057420
C        0.15317243      -1.81633863      -0.06430972
C       -0.18593393      -2.68223042      -1.08659453
N       -0.48241196      -3.97144285      -0.84642730
C       -0.41227398      -4.36657763       0.43008141
C        0.50319642      -0.43879572      -0.35183382
O        1.65864522      -0.24718436      -0.68563997
N       -0.35307864       0.53500810      -0.29556337
C       -1.70136122       0.59447813       0.01261022
S       -2.63810846      -0.84716733       0.36864443
C       -3.96144704       0.25029401       0.55802560
N       -3.73373387       1.52729651       0.37469784
N       -2.39569757       1.72819774       0.04920636
O       -5.19527460      -0.14973155       0.87891594
H        0.51889725      -1.69711302       2.06291677
H       -0.65108455      -5.40799457       0.63436786
H       -0.23065911      -2.34509648      -2.12188459
H       -5.68346290       0.68886935       0.90385483
19
Properties=species:S:1:pos:R:3 energy=-9.064766127329479 constraints="[\"9,8,6,2=10\"]" angle=10 pbc="F F F"
N       -0.18019448      -3.23063644      -1.90019512
C        0.06590031      -2.00970041      -1.39580491
C        0.15510739      -1.80154522      -0.02950443
C        0.02961876      -2.89870202       0.80237348
N       -0.22131902      -4.12650676       0.31444043
C       -0.31967428      -4.22579876      -1.01603660
C        0.46097968      -0.49243802       0.52212870
O        1.50154702      -0.40470498       1.14978563
N       -0.34822225       0.51434569       0.40482515
C       -1.65413444       0.58699176      -0.04029258
S       -2.69333746      -0.82806677      -0.01507032
C       -3.90762560       0.25517232      -0.60355673
N       -3.58328412       1.51422386      -0.77094550
N       -2.25187564       1.71254991      -0.41762108
O       -5.15365934      -0.13683417      -0.88478321
H        0.18607139      -1.18983745      -2.10428988
H       -0.52187889      -5.21539142      -1.41993659
H        0.12281517      -2.80221652       1.88389784
H       -5.56842251       0.69019500      -1.17831183
19
Properties=species:S:1:pos:R:3 energy=-9.085879984298543 constraints="[\"9,8,6,2=20\"]" angle=20 pbc="F F F"
N        0.00522506      -2.88560005      -2.22420807
C        0.17150128      -1.74074331      -1.54046457
C        0.23579840      -1.73296748      -0.15626219
C        0.16867990      -2.94824621       0.50070278
N       -0.00263582      -4.10211846      -0.16841885
C       -0.08161095      -4.00773970      -1.50034646
C        0.45300043      -0.50404269       0.59281923
O        1.40359265      -0.49149915       1.35517178
N       -0.32988961       0.51988756       0.45764256
C       -1.61797467       0.58792110      -0.03283968
S       -2.65296335      -0.82965087       0.00266699
C       -3.84853769       0.23288449      -0.65884088
N       -3.52083821       1.48757158      -0.85415222
N       -2.20233911       1.70084853      -0.46303959
O       -5.08392817      -0.17073029      -0.96911954
H        0.24812553      -0.81933794      -2.11843606
H       -0.21927980      -4.93622425      -2.05014842
H        0.24424064      -3.00979722       1.58619815
H       -5.48963888       0.64551190      -1.30275365
19
Properties=species:S:1:pos:R:3 energy=-9.088807929202492 constraints="[\"9,8,6,2=30\"]" angle=30 pbc="F F F"
N        0.27767550      -2.53799558      -2.47123096
C        0.34172928      -1.48192082      -1.64242700
C        0.34711338      -1.64717743      -0.26596093
C        0.32780872      -2.93901640       0.22880523
N        0.25845706      -4.00567009      -0.58715185
C        0.23144588      -3.74644914      -1.89895626
C        0.44969747      -0.51411790       0.64476506
O        1.31138014      -0.57367263       1.50451536
N       -0.30840886       0.52563573       0.49966823
C       -1.58487566       0.59170487      -0.01791737
S       -2.59022507      -0.84664707      -0.05266090
C       -3.78709431       0.21195194      -0.71898886
N       -3.47792515       1.47741856      -0.87252315
N       -2.17501745       1.70462796      -0.43920807
O       -5.00531877      -0.20582646      -1.07502145
H        0.38475097      -0.49174301      -2.09720998
H        0.17649272      -4.60331164      -2.56685493
H        0.35905069      -3.13545539       1.30038971
H       -5.41664402       0.61124600      -1.39965127
19
Properties=species:S:1:pos:R:3 energy=-9.073609554971988 constraints="[\"9,8,6,2=40\"]" angle=40 pbc="F F F"
N        0.59871847      -2.18189309      -2.63869271
C        0.54286054      -1.22600967      -1.69524275
C        0.47934826      -1.54793751      -0.34761654
C        0.51613892      -2.88761811      -0.00308661
N        0.56649423      -3.85528328      -0.93544529
C        0.60042730      -3.44863205      -2.20895740
C        0.44672454      -0.52507168       0.69196763
O        1.21549494      -0.65772963       1.62831443
N       -0.28457645       0.53126164       0.54046142
C       -1.55112488       0.59610539       0.00122745
S       -2.51580615      -0.86427547      -0.12603750
C       -3.72094136       0.19367183      -0.77909822
N       -3.43902452       1.47156776      -0.87221807
N       -2.15373383       1.71123881      -0.39512970
O       -4.91847810      -0.23743573      -1.18581982
H        0.54635964      -0.18961693      -2.03458844
H        0.64254758      -4.22448421      -2.97027538
H        0.49558311      -3.20508102       1.03935944
H       -5.34089091       0.58255723      -1.48811527
19
Properties=species:S:1:pos:R:3 energy=-9.043027496986856 constraints="[\"9,8,6,2=50\"]" angle=50 pbc="F F F"
N        0.95393835      -1.82441544      -2.72354638
C        0.76298560      -0.97676026      -1.69754641
C        0.62733220      -1.44013504      -0.39657274
C        0.73261607      -2.80394039      -0.18570985
N        0.91796783      -3.66430007      -1.20233863
C        1.01523990      -3.12603222      -2.42246975
C        0.44188181      -0.53813807       0.73633969
O        1.11172402      -0.74498954       1.73332111
N       -0.26052038       0.53547318       0.58178965
C       -1.51795878       0.60044964       0.02404989
S       -2.43622657      -0.87706367      -0.20399263
C       -3.65256782       0.18093300      -0.83655756
N       -3.40195592       1.46864022      -0.86257443
N       -2.13561120       1.71766282      -0.34153410
O       -4.82734337      -0.26025859      -1.29550356
H        0.71751270       0.08708219      -1.93320034
H        1.16676391      -3.81425404      -3.25115632
H        0.65816915      -3.22984888       0.81478638
H       -5.26332415       0.56238445      -1.57010892
19
Properties=species:S:1:pos:R:3 energy=-9.000982099320623 constraints="[\"9,8,6,2=60\"]" angle=60 pbc="F F F"
N        1.33300659      -1.47467028      -2.72441383
C        0.99393611      -0.73982449      -1.65041454
C        0.78678246      -1.32923632      -0.41050424
C        0.97477367      -2.69711529      -0.31106506
N        1.30832481      -3.44534198      -1.37736310
C        1.46743468      -2.79108958      -2.53237623
C        0.43376033      -0.55465114       0.77670468
O        0.99618460      -0.83725395       1.82043824
N       -0.23916113       0.53610134       0.62344294
C       -1.48822700       0.60399714       0.05007245
S       -2.35892987      -0.88248546      -0.28067341
C       -3.58686549       0.17684771      -0.88877144
N       -3.36793407       1.47003331      -0.84574087
N       -2.12077115       1.72318852      -0.28205803
O       -4.73842733      -0.26890618      -1.39927409
H        0.88853711       0.33546789      -1.79881578
H        1.73894630      -3.38789801      -3.40038331
H        0.84756800      -3.21906735       0.63727629
H       -5.18836398       0.55580621      -1.64352355
19
Properties=species:S:1:pos:R:3 energy=-8.952715907188855 constraints="[\"9,8,6,2=70\"]" angle=70 pbc="F F F"
N        1.72595441      -1.14076305      -2.64158779
C        1.22856814      -0.52059721      -1.55659307
C        0.95344746      -1.22067694      -0.38866113
C        1.23861457      -2.57560369      -0.37248279
N        1.73085132      -3.20959664      -1.45133995
C        1.94733499      -2.45468843      -2.53304645
C        0.42192133      -0.57619581       0.81058167
O        0.86496545      -0.93811026       1.88691173
N       -0.22350462       0.53036763       0.66415784
C       -1.46500746       0.60547475       0.07800793
S       -2.29277535      -0.88005861      -0.35118555
C       -3.52994275       0.18362598      -0.93298197
N       -3.33875194       1.47740044      -0.82309639
N       -2.10944270       1.72741739      -0.22005832
O       -4.66000704      -0.25920656      -1.49182898
H        1.05208373       0.55245352      -1.63890702
H        2.34715244      -2.95853215      -3.41033075
H        1.06231626      -3.18145979       0.51625704
H       -5.12192646       0.56748080      -1.70509637
19
Properties=species:S:1:pos:R:3 energy=-8.905569463503161 constraints="[\"9,8,6,2=80\"]" angle=80 pbc="F F F"
N        2.12267504      -0.82843074      -2.47606130
C        1.46141802      -0.32279295      -1.41919584
C        1.12262392      -1.11892328      -0.33136864
C        1.51551241      -2.44684434      -0.36520368
N        2.17235175      -2.96648431      -1.41730111
C        2.44110243      -2.12535246      -2.42053132
C        0.40744841      -0.60366923       0.83520645
O        0.71487611      -1.05226566       1.92621959
N       -0.21527938       0.51615132       0.70173585
C       -1.45005399       0.60346073       0.10539741
S       -2.24568267      -0.87166298      -0.41080868
C       -3.48706276       0.20108707      -0.96687348
N       -3.31527392       1.49121532      -0.79707534
N       -2.10076034       1.72994899      -0.16034575
O       -4.59971216      -0.23067188      -1.56782460
H        1.20565899       0.73654309      -1.46040778
H        2.97379741      -2.53633090      -3.27532832
H        1.29455028      -3.12519850       0.45883673
H       -5.06929195       0.59873043      -1.75179888
19
Properties=species:S:1:pos:R:3 energy=-8.86902239806083 constraints="[\"9,8,6,2=90\"]" angle=90 pbc="F F F"
N        2.51326896      -0.54116154      -2.22819608
C        1.69008644      -0.14706240      -1.23952274
C        1.28885925      -1.02610066      -0.23953246
C        1.78891641      -2.31767869      -0.28852926
N        2.60873736      -2.72568570      -1.27345801
C        2.92820648      -1.81100126      -2.19371230
C        0.39357403      -0.63459402       0.84897855
O        0.54408172      -1.18266671       1.92760990
N       -0.21343337       0.49486746       0.73347142
C       -1.44266284       0.59772136       0.12968949
S       -2.21900346      -0.86064167      -0.45812188
C       -3.45959012       0.22551488      -0.98966322
N       -3.29789308       1.50939056      -0.76939300
N       -2.09410973       1.73053832      -0.10643702
O       -4.56005069      -0.18896975      -1.62439062
H        1.35535558       0.89049529      -1.26544244
H        3.59228213      -2.13156515      -2.99345708
H        1.52515781      -3.05838069       0.46634547
H       -5.03264795       0.64414733      -1.78184900
19
Properties=species:S:1:pos:R:3 energy=-8.853983482539778 constraints="[\"9,8,6,2=100\"]" angle=100 pbc="F F F"
N        2.37544300      -2.81295141      -2.08119499
C        1.83610358      -2.24650350      -0.98749720
C        1.25927014      -0.98581111      -1.03058144
C        1.28112108      -0.31456921      -2.24704682
N        1.82141990      -0.86868949      -3.34837922
C        2.33948756      -2.09158033      -3.20612755
C        0.67502327      -0.39943526       0.17459047
O        1.13938728      -0.72500723       1.25391724
N       -0.03349676       0.66428508       0.02452383
C       -1.40579458       0.61814295      -0.00100932
S       -2.20488359      -0.93108076       0.18923186
C       -3.65598718      -0.01006502      -0.02874568
N       -3.54715086       1.28107443      -0.23955441
N       -2.20601491       1.65339545      -0.22874846
O       -4.87272395      -0.56244040      -0.01055887
H        1.86438440      -2.82776866      -0.06549221
H        2.77601063      -2.54512619      -4.09331212
H        0.86239436       0.68511668      -2.36376605
H       -5.44866564       0.20418796      -0.16121824
19
Properties=species:S:1:pos:R:3 energy=-8.882325499405088 constraints="[\"9,8,6,2=110\"]" angle=110 pbc="F F F"
N        2.67544814      -2.55904791      -2.08881154
C        1.98532019      -2.08388958      -1.03677608
C        1.47533193      -0.79325075      -1.02595756
C        1.71281808      -0.00293937      -2.14282078
N        2.40578131      -0.46490652      -3.20022172
C        2.84743872      -1.72284824      -3.11751544
C        0.73996234      -0.28552463       0.13027686
O        0.76263814      -0.92075591       1.17208997
N       -0.04099950       0.71868648      -0.06951852
C       -1.41399337       0.63039452      -0.02720199
S       -2.18191466      -0.93673362       0.15523563
C       -3.65508102      -0.03761585       0.01029479
N       -3.57623095       1.25830181      -0.18369111
N       -2.24203437       1.65295167      -0.21744192
O       -4.86160529      -0.61057708       0.06242874
H        1.84399042      -2.76124472      -0.19417032
H        3.40638656      -2.10296881      -3.96983033
H        1.35565385       1.02498794      -2.20752538
H       -5.45402181       0.14930106      -0.05315803
19
Properties=species:S:1:pos:R:3 energy=-8.970518955082984 constraints="[\"9,8,6,2=120\"]" angle=120 pbc="F F F"
N        3.04646619      -2.24924031      -2.04028408
C        2.21401908      -1.90706199      -1.04074135
C        1.65380023      -0.63931548      -0.96338147
C        1.99146257       0.26927375      -1.95801749
N        2.82714049      -0.05900184      -2.96100312
C        3.30713325      -1.30540046      -2.95023314
C        0.76516228      -0.27314266       0.13834779
O        0.65648562      -1.04309221       1.07922837
N       -0.04826515       0.70201178      -0.08535328
C       -1.42280391       0.61358145      -0.02872364
S       -2.20726162      -0.94976744       0.12027724
C       -3.67215124      -0.03367473       0.00583882
N       -3.58164436       1.26513280      -0.16030577
N       -2.24377599       1.64674863      -0.19508487
O       -4.88422627      -0.59542332       0.05376599
H        2.00049567      -2.67325939      -0.29504317
H        3.98121593      -1.57781575      -3.75940575
H        1.60291744       1.28778813      -1.96358729
H       -5.46924692       0.17281548      -0.04201198
19
Properties=species:S:1:pos:R:3 energy=-9.076171506762943 constraints="[\"9,8,6,2=130\"]" angle=130 pbc="F F F"
N        3.41689474      -1.92256326      -1.90716209
C        2.45177425      -1.72462718      -0.99141734
C        1.80850997      -0.50073869      -0.86552190
C        2.20508944       0.51880123      -1.72164297
N        3.17307104       0.33513729      -2.63912573
C        3.72486025      -0.88023043      -2.68516238
C        0.77366613      -0.29273559       0.14706310
O        0.59698913      -1.16623860       0.98094355
N       -0.05349970       0.67189120      -0.07913113
C       -1.43010981       0.59370319      -0.02458780
S       -2.24060940      -0.95942838       0.09508583
C       -3.69085861      -0.01904791      -0.00321132
N       -3.57990627       1.28090573      -0.14472705
N       -2.23619897       1.64178956      -0.17219696
O       -4.91173183      -0.56234565       0.03446900
H        2.19946348      -2.57188780      -0.35331854
H        4.50605823      -1.03581899      -3.42602800
H        1.75802211       1.51218917      -1.68093264
H       -5.48437000       0.21665577      -0.04797459
19
Properties=species:S:1:pos:R:3 energy=-9.183724773605922 constraints="[\"9,8,6,2=140\"]" angle=140 pbc="F F F"
N        3.75323180      -1.60226672      -1.68628321
C        2.67155034      -1.54626704      -0.88875625
C        1.94040476      -0.37596290      -0.73477318
C        2.37415149       0.74274680      -1.43546384
N        3.45800841       0.70110876      -2.23319052
C        4.08791925      -0.47333454      -2.31865430
C        0.77583641      -0.32544949       0.14984088
O        0.55415299      -1.28802388       0.86631011
N       -0.05755918       0.63721020      -0.06739525
C       -1.43625878       0.57261612      -0.02081488
S       -2.27505018      -0.96724898       0.07940922
C       -3.70863015      -0.00125105      -0.01020105
N       -3.57493319       1.29826090      -0.13335832
N       -2.22515594       1.63598275      -0.15355516
O       -4.93885368      -0.52365513       0.01897248
H        2.39709222      -2.46482612      -0.36954806
H        4.96310396      -0.51401784      -2.96344734
H        1.86345200       1.70307106      -1.36277694
H       -5.49767403       0.26614793      -0.05483201
19
Properties=species:S:1:pos:R:3 energy=-9.280882203356851 constraints="[\"9,8,6,2=150\"]" angle=150 pbc="F F F"
N        4.03913743      -1.30902639      -1.38023620
C        2.86124560      -1.38340220      -0.73509317
C        2.04682769      -0.27020920      -0.57457700
C        2.50058380       0.93183264      -1.10452350
N        3.67979176       1.02040692      -1.74855285
C        4.38508180      -0.10847837      -1.85478846
C        0.77445340      -0.36551086       0.14318782
O        0.52081375      -1.40522609       0.72890573
N       -0.06067441       0.60093148      -0.05453022
C       -1.44123077       0.55139016      -0.01882264
S       -2.30837284      -0.97361612       0.07181641
C       -3.72456787       0.01769373      -0.01349130
N       -3.56777426       1.31560238      -0.12402454
N       -2.21225201       1.62949871      -0.13900067
O       -4.96390106      -0.48304097       0.01050854
H        2.57726598      -2.36104133      -0.34494992
H        5.33773777      -0.04367497      -2.37595038
H        1.92854778       1.85545426      -1.01514865
H       -5.50854897       0.31704927      -0.05807463
19
Properties=species:S:1:pos:R:3 energy=-9.357607421304552 constraints="[\"9,8,6,2=160\"]" angle=160 pbc="F F F"
N        4.26226336      -1.06459996      -0.99564138
C        3.01200076      -1.24847243      -0.53506069
C        2.12494783      -0.18973036      -0.39051693
C        2.58378888       1.07583825      -0.73776736
N        3.83442432       1.27352059      -1.19627423
C        4.60656452       0.18949244      -1.30330503
C        0.77096537      -0.40832720       0.12357146
O        0.49395132      -1.51309319       0.56016451
N       -0.06294372       0.56596540      -0.04235132
C       -1.44495893       0.53151557      -0.01878833
S       -2.33860419      -0.97849415       0.06932396
C       -3.73795752       0.03643886      -0.01239266
N       -3.55935077       1.33218373      -0.11320651
N       -2.19877815       1.62327897      -0.12565630
O       -4.98556306      -0.44342560       0.00991947
H        2.72919743      -2.27044657      -0.28166811
H        5.61738151       0.34281910      -1.67492768
H        1.95748140       1.96350260      -0.64807610
H       -5.51667415       0.36605265      -0.05439889
19
Properties=species:S:1:pos:R:3 energy=-9.406460290872463 constraints="[\"9,8,6,2=170\"]" angle=170 pbc="F F F"
N        4.41155104      -0.89448198      -0.53931407
C        3.11555583      -1.15633044      -0.29262614
C        2.17225814      -0.14182451      -0.19107321
C        2.62414242       1.16356984      -0.35173430
N        3.91958411       1.43867698      -0.59610222
C        4.74440445       0.39213941      -0.67877955
C        0.76618112      -0.44896801       0.08548157
O        0.47208527      -1.60403366       0.34397579
N       -0.06429607       0.53613058      -0.02945079
C       -1.44726115       0.51531574      -0.01824367
S       -2.36313823      -0.98187101       0.06263443
C       -3.74787254       0.05358338      -0.00704481
N       -3.55077524       1.34776369      -0.09079502
N       -2.18619670       1.61931514      -0.10201751
O       -5.00224726      -0.40837089       0.01403997
H        2.84229975      -2.20544852      -0.17737739
H        5.79184865       0.60842467      -0.87738801
H        1.95532415       2.02152573      -0.28244441
H       -5.52175360       0.40933183      -0.04013381
19
Properties=species:S:1:pos:R:3 energy=-9.423090256008141 constraints="[\"9,8,6,2=180\"]" angle=180 pbc="F F F"
N        4.46846634      -0.84825603       0.00858379
C        3.15523376      -1.13874124       0.00811046
C        2.18656622      -0.14284625       0.00497226
C        2.63216867       1.17499098       0.00232178
N        3.94428891       1.47828284       0.00276325
C        4.79300506       0.44788210       0.00587767
C        0.76021927      -0.48332674       0.00451511
O        0.45362358      -1.66374561       0.00691724
N       -0.06388739       0.51399362       0.00155488
C       -1.44723578       0.50523853       0.00038566
S       -2.37937741      -0.98413163       0.00295733
C       -3.75297406       0.06827401      -0.00060541
N       -3.54204752       1.36294305      -0.00335502
N       -2.17464586       1.62005392      -0.00276265
O       -5.01224050      -0.38067471      -0.00067019
H        2.88939448      -2.19605315       0.01031675
H        5.85417331       0.68722695       0.00624879
H        1.94453412       2.02075205      -0.00022745
H       -5.52298307       0.44430502      -0.00297801
19
Properties=species:S:1:pos:R:3 energy=-9.406460290872463 constraints="[\"9,8,6,2=190\"]" angle=190 pbc="F F F"
N        4.40083082      -0.95024129       0.54770810
C        3.10286596      -1.20168903       0.30055512
C        2.16825511      -0.17948288       0.19594893
C        2.63102517       1.12240722       0.35403391
N        3.92855022       1.38711436       0.59883507
C        4.74443119       0.33383491       0.68454385
C        0.75985485      -0.47535973      -0.08106236
O        0.45622743      -1.62846732      -0.33726797
N       -0.06236996       0.51695877       0.03105266
C       -1.44545178       0.50778712       0.01878180
S       -2.37386556      -0.98179347      -0.05956368
C       -3.74986821       0.06545543       0.00674131
N       -3.54192316       1.35810739       0.08782677
N       -2.17511104       1.61816162       0.09955218
O       -5.00807919      -0.38594585      -0.01433749
H        2.82084628      -2.24871894       0.18744821
H        5.79350718       0.54171254       0.88351733
H        1.96953415       1.98582252       0.28226362
H       -5.52070972       0.43622645       0.03764352
19
Properties=species:S:1:pos:R:3 energy=-9.357607421304552 constraints="[\"9,8,6,2=200\"]" angle=200 pbc="F F F"
N        4.24976461      -1.11808756       1.00424461
C        2.99835448      -1.29242682       0.54307356
C        2.12038567      -0.22655963       0.39546439
C        2.58962436       1.03586240       0.74026514
N        3.84152553       1.22400321       1.19933195
C        4.60440158       0.13373723       1.30939256
C        0.76500805      -0.43486578      -0.11921998
O        0.47901735      -1.53822565      -0.55357526
N       -0.06077453       0.54679943       0.04386701
C       -1.44301251       0.52396464       0.01927451
S       -2.34930622      -0.97864042      -0.06619308
C       -3.74010374       0.04824893       0.01214500
N       -3.55064186       1.34266168       0.11021845
N       -2.18767008       1.62228830       0.12310959
O       -4.99169863      -0.42111533      -0.01009808
H        2.70713058      -2.31254023       0.29172928
H        5.61618634       0.27935459       1.68148212
H        1.97090430       1.92857973       0.64809770
H       -5.51600624       0.39295899       0.05199376
19
Properties=species:S:1:pos:R:3 energy=-9.280882203356851 constraints="[\"9,8,6,2=210\"]" angle=210 pbc="F F F"
N        4.02428232      -1.35976288       1.38920362
C        2.84630913      -1.42563244       0.74328503
C        2.04144497      -0.30596518       0.57964049
C        2.50491972       0.89338315       1.10727409
N        3.68432975       0.97343705       1.75204846
C        4.37997989      -0.16112184       1.86136017
C        0.76887279      -0.39212430      -0.13892875
O        0.50692148      -1.43096596      -0.72253462
N       -0.05821958       0.58177221       0.05596986
C       -1.43911670       0.54380708       0.01926755
S       -2.31903280      -0.97402335      -0.06867213
C       -3.72687370       0.02939394       0.01329603
N       -3.55921350       1.32617622       0.12106654
N       -2.20110137       1.62865133       0.13642923
O       -4.97037141      -0.46091337      -0.01058162
H        2.55439018      -2.40170778       0.35509088
H        5.33274141      -0.10319967       2.38313900
H        1.94077253       1.82159895       1.01538649
H       -5.50829796       0.34389708       0.05578515
19
Properties=species:S:1:pos:R:3 energy=-9.183724773605922 constraints="[\"9,8,6,2=220\"]" angle=220 pbc="F F F"
N        3.73567183      -1.64989553       1.69567340
C        2.65512546      -1.58654682       0.89715823
C        1.93400774      -0.41045897       0.73998635
C        2.37663678       0.70611037       1.43853304
N        3.45947963       0.65710484       2.23721771
C        4.07938486      -0.52242037       2.32579868
C        0.77059921      -0.35209098      -0.14566982
O        0.54135649      -1.31435630      -0.86017271
N       -0.05480821       0.61805196       0.06875663
C       -1.43396723       0.56499471       0.02121653
S       -2.28565165      -0.96795469      -0.07625241
C       -3.71109393       0.01030800       0.01006069
N       -3.56652589       1.30891667       0.13043315
N       -2.21396147       1.63527654       0.15095891
O       -4.94566124      -0.50175631      -0.01893510
H        2.37332739      -2.50391278       0.37977565
H        4.95369062      -0.56905100       2.97138098
H        1.87412075       1.67054688       1.36330076
H       -5.49785065       0.29289865       0.05266451
19
Properties=species:S:1:pos:R:3 energy=-9.076171506762943 constraints="[\"9,8,6,2=230\"]" angle=230 pbc="F F F"
N        3.39646987      -1.96684772       1.91699512
C        2.43377109      -1.76281580       1.00003998
C        1.80096198      -0.53382480       0.87090676
C        2.20546628       0.48423915       1.72507434
N        3.17114521       0.29445856       2.64373802
C        3.71261691      -0.92541802       2.69292049
C        0.76870304      -0.31935380      -0.14296657
O        0.58530895      -1.19319310      -0.97504251
N       -0.05046523       0.65272356       0.08041856
C       -1.42764338       0.58603749       0.02494744
S       -2.25113382      -0.96046011      -0.09191880
C       -3.69346782      -0.00765379       0.00312481
N       -3.57165421       1.29162951       0.14183648
N       -2.22496964       1.64121795       0.16957890
O       -4.91885492      -0.54070889      -0.03432379
H        2.17481449      -2.60933831       0.36362621
H        4.49189403      -1.08594173       3.43475555
H        1.76683430       1.48127230       1.68179592
H       -5.48495961       0.24328076       0.04592788
19
Properties=species:S:1:pos:R:3 energy=-8.970518955082984 constraints="[\"9,8,6,2=240\"]" angle=240 pbc="F F F"
N        3.02319236      -2.29008824       2.05054710
C        2.19444557      -1.94312656       1.04957947
C        1.64501127      -0.67087193       0.96895056
C        1.98955550       0.23705205       1.96183241
N        2.82164768      -0.09602702       2.96621459
C        3.29110790      -1.34645403       2.95860217
C        0.76035812      -0.29967038      -0.13430169
O        0.64591990      -1.07077299      -1.07355345
N       -0.04498142       0.68281269       0.08657786
C       -1.42017314       0.60586255       0.02904489
S       -2.21768598      -0.95113726      -0.11710494
C       -3.67487756      -0.02245818      -0.00587779
N       -3.57353759       1.27590662       0.15744886
N       -2.23252241       1.64629188       0.19244965
O       -4.89161455      -0.57406056      -0.05352511
H        1.97504347      -2.70915650       0.30541729
H        3.96223379      -1.62274335       3.76891823
H        1.60961959       1.25881994       1.96482493
H       -5.47020258       0.19930118       0.04007493
19
Properties=species:S:1:pos:R:3 energy=-8.882325499405088 constraints="[\"9,8,6,2=250\"]" angle=250 pbc="F F F"
N        2.64953392      -2.59664377       2.09946679
C        1.96426499      -2.11802569       1.04582459
C        1.46520075      -0.82315513       1.03172613
C        1.70847820      -0.03238607       2.14701784
N        2.39668950      -0.49782543       3.20599841
C        2.82777452      -1.75963204       3.12644489
C        0.73504823      -0.31182114      -0.12622341
O        0.75317410      -0.94954468      -1.16660202
N       -0.03756286       0.69939009       0.07071186
C       -1.41121977       0.62259720       0.02749288
S       -2.19220256      -0.93839593      -0.15207195
C       -3.65783774      -0.02655319      -0.01031131
N       -3.56820033       1.26908238       0.18085367
N       -2.23074596       1.65252987       0.21479422
O       -4.86911557      -0.58942402      -0.06213600
H        1.81787981      -2.79604245       0.20461522
H        3.38282659      -2.14255435       3.98005060
H        1.35995533       0.99866146       2.20914916
H       -5.45518527       0.17568401       0.05128546
19
Properties=species:S:1:pos:R:3 energy=-8.853983482539778 constraints="[\"9,8,6,2=260\"]" angle=260 pbc="F F F"
N        2.34740173      -2.84802209       2.09217506
C        1.81371927      -2.27948378       0.99678823
C        1.24751727      -1.01387394       1.03660550
C        1.27408408      -0.34012725       2.25159142