19
Properties=species:S:1:pos:R:3 energy=-9.423090256008141 constraints="[\"7,6,2,1=0\"]" angle=0 pbc="F F F"
N        4.45860121      -0.90556811      -0.00045815
C        3.14297003      -1.18498861      -0.00048285
C        2.18271336      -0.18097727      -0.00012364
C        2.63939488       1.13306462       0.00025908
N        3.95402167       1.42530200       0.00028910
C        4.79404092       0.38779442      -0.00007183
C        0.75355112      -0.50944297      -0.00016510
O        0.43703155      -1.68724220      -0.00052352
N       -0.06213418       0.49478070       0.00019050
C       -1.44550740       0.49767229       0.00025918
S       -2.39016532      -0.98379367      -0.00012416
C       -3.75484872       0.08015038       0.00025588
N       -3.53302178       1.37299985       0.00062857
N       -2.16350178       1.61857908       0.00062968
O       -5.01785261      -0.35817253       0.00019935
H        2.86824412      -2.24002864      -0.00079825
H        5.85718614       0.61819927      -0.00005054
H        1.95890416       1.98458785       0.00055208
H       -5.52162738       0.47108362       0.00047945
19
Properties=species:S:1:pos:R:3 energy=-9.422634465328391 constraints="[\"7,6,2,1=10\"]" angle=10 pbc="F F F"
N        4.45735540      -0.87404822      -0.08914139
C        3.14261577      -1.15620056      -0.11842224
C        2.18077738      -0.17509621       0.08468630
C        2.63323508       1.11789894       0.32406954
N        3.94688842       1.41232660       0.35944609
C        4.78941784       0.39831848       0.14867800
C        0.75363429      -0.50593481       0.05235959
O        0.44019370      -1.68428663       0.02906493
N       -0.06279306       0.49758576       0.05109257
C       -1.44579739       0.49894800       0.02053753
S       -2.38738311      -0.98332047      -0.03722871
C       -3.75375223       0.07845541      -0.04101914
N       -3.53443068       1.37120380      -0.00408208
N       -2.16570758       1.61855548       0.03219594
O       -5.01561023      -0.36143441      -0.07993862
H        2.86931133      -2.19382893      -0.31139287
H        5.85181755       0.63070001       0.17455954
H        1.94938760       1.94859412       0.49872384
H       -5.52083573       0.46688758      -0.07064091
19
Properties=species:S:1:pos:R:3 energy=-9.419954416131459 constraints="[\"7,6,2,1=20\"]" angle=20 pbc="F F F"
N        4.44741482      -0.81889887      -0.28978591
C        3.13311199      -1.10360918      -0.31532967
C        2.17962601      -0.17732413       0.08309221
C        2.63573764       1.06208623       0.51446815
N        3.94903874       1.35782226       0.55118658
C        4.78530335       0.39974944       0.14331448
C        0.75538998      -0.50847568       0.05137504
O        0.44401746      -1.68733375       0.03310612
N       -0.05869592       0.49664584       0.05368549
C       -1.44162391       0.49941059       0.02366529
S       -2.38331887      -0.98183282      -0.05365907
C       -3.74955529       0.08008897      -0.04415815
N       -3.53006142       1.37223893       0.00904289
N       -2.16130252       1.61892628       0.04863587
O       -5.01145362      -0.35909831      -0.08911786
H        2.85179831      -2.09686366      -0.66595971
H        5.84739723       0.63365143       0.16802780
H        1.95378553       1.84380827       0.84935127
H       -5.51657820       0.46910773      -0.06949647
19
Properties=species:S:1:pos:R:3 energy=-9.412494143130841 constraints="[\"7,6,2,1=30\"]" angle=30 pbc="F F F"
N        4.43056691      -0.73195607      -0.47234165
C        3.11726286      -1.02148848      -0.49647433
C        2.17821841      -0.18155618       0.08197608
C        2.64191559       0.97713309       0.68866060
N        3.95440635       1.27597059       0.72795047
C        4.77916354       0.40413450       0.14086784
C        0.75769085      -0.51237886       0.04516993
O        0.44854198      -1.69162980       0.02983023
N       -0.05321882       0.49474417       0.05825190
C       -1.43606321       0.49964230       0.02968528
S       -2.37815883      -0.97932276      -0.07874113
C       -3.74404347       0.08265687      -0.04783233
N       -3.52410146       1.37340572       0.03118853
N       -2.15525160       1.61876968       0.07592539
O       -5.00607060      -0.35508081      -0.10220212
H        2.82342169      -1.94713853      -0.99188086
H        5.84055338       0.64117929       0.16588379
H        1.96518692       1.68600034       1.16603446
H       -5.51092080       0.47273663      -0.06598442
19
Properties=species:S:1:pos:R:3 energy=-9.398688447526583 constraints="[\"7,6,2,1=40\"]" angle=40 pbc="F F F"
N        4.40872115      -0.61575514      -0.63326768
C        3.09704624      -0.91247734      -0.65895270
C        2.17689090      -0.18813330       0.08034469
C        2.65142899       0.86604850       0.84481475
N        3.96252691       1.17009482       0.88859447
C        4.77171663       0.41186748       0.14251744
C        0.76001403      -0.51779718       0.03530380
O        0.45218998      -1.69708901       0.02146935
N       -0.04715057       0.49141168       0.06304211
C       -1.42992597       0.49918914       0.03683758
S       -2.37322405      -0.97597266      -0.10655794
C       -3.73820428       0.08616564      -0.05083714
N       -3.51713318       1.37459571       0.05737633
N       -2.14805197       1.61770415       0.10746410
O       -5.00059886      -0.34910898      -0.11539435
H        2.78823872      -1.74985847      -1.28496842
H        5.83193473       0.65385464       0.16979998
H        1.98308669       1.48183243       1.44683116
H       -5.50473754       0.47809276      -0.06011910
19
Properties=species:S:1:pos:R:3 energy=-9.379013800650172 constraints="[\"7,6,2,1=50\"]" angle=50 pbc="F F F"
N        4.38253081      -0.47328733      -0.77009613
C        3.07293437      -0.77856891      -0.80051667
C        2.17578204      -0.19621280       0.07729526
C        2.66509965       0.73069562       0.98167237
N        3.97434720       1.04122445       1.03221417
C        4.76381740       0.42166177       0.14884635
C        0.76206085      -0.52438349       0.02420056
O        0.45437304      -1.70335566       0.01134211
N       -0.04111166       0.48679325       0.06622081
C       -1.42383957       0.49799257       0.04307604
S       -2.36931941      -0.97255230      -0.13002740
C       -3.73273995       0.09018065      -0.05198345
N       -3.50973506       1.37590923       0.08133580
N       -2.14025457       1.61603009       0.13521852
O       -4.99579082      -0.34190337      -0.12456602
H        2.74700768      -1.50811423      -1.54199359
H        5.82251800       0.66967955       0.18054671
H        2.00893069       1.23487392       1.69117830
H       -5.49869848       0.48475695      -0.05247485
19
Properties=species:S:1:pos:R:3 energy=-9.355907254040623 constraints="[\"7,6,2,1=60\"]" angle=60 pbc="F F F"
N        4.35134942      -0.30804575      -0.88108728
C        3.04374552      -0.62095320      -0.91850987
C        2.17489441      -0.20356579       0.07295980
C        2.68530961       0.57233498       1.09767369
N        3.99273511       0.88848630       1.15645666
C        4.75673742       0.43058667       0.15896165
C        0.76370677      -0.53078132       0.01476141
O        0.45556874      -1.70929915       0.00262047
N       -0.03584871       0.48203594       0.06651935
C       -1.41854673       0.49655297       0.04651953
S       -2.36670143      -0.97032604      -0.14236047
C       -3.72826592       0.09367511      -0.05062676
N       -3.50296384       1.37747849       0.09648884
N       -2.13300326       1.61473987       0.15126617
O       -4.99211279      -0.33549265      -0.12652995
H        2.69686707      -1.22320101      -1.75814644
H        5.81396992       0.68398965       0.19652751
H        2.04680084       0.94697152       1.89760040
H       -5.49355083       0.49114589      -0.04458307
19
Properties=species:S:1:pos:R:3 energy=-9.333199082090866 constraints="[\"7,6,2,1=70\"]" angle=70 pbc="F F F"
N        4.31336771      -0.12334861      -0.96527812
C        3.00680664      -0.43985159      -1.00919280
C        2.17409287      -0.20678431       0.06915829
C        2.71604805       0.39165952       1.19050010
N        4.02250029       0.70966195       1.25634258
C        4.75226632       0.43486419       0.16958314
C        0.76488330      -0.53453671       0.01105764
O        0.45692714      -1.71282513      -0.00108357
N       -0.03239544       0.47927781       0.06359676
C       -1.41508286       0.49589950       0.04555086
S       -2.36523028      -0.97050160      -0.13710802
C       -3.72548123       0.09528422      -0.04698793
N       -3.49854825       1.37928315       0.09559740
N       -2.12823220       1.61518462       0.14770129
O       -4.98990782      -0.33273231      -0.11963250
H        2.63192963      -0.89503243      -1.92575912
H        5.80873322       0.69064100       0.21225439
H        2.10350051       0.61851336       2.06284503
H       -5.49029537       0.49474322      -0.03970590
19
Properties=species:S:1:pos:R:3 energy=-9.315577534127124 constraints="[\"7,6,2,1=80\"]" angle=80 pbc="F F F"
N        4.24246109       0.04534282      -1.16467646
C        2.93394023      -0.26632935      -1.17366333
C        2.17426758      -0.20888810      -0.02065058
C        2.79049791       0.20549272       1.14350817
N        4.09936480       0.51781905       1.17449548
C        4.75610486       0.42177798       0.01293693
C        0.76535839      -0.53792396      -0.03297245
O        0.45767629      -1.71604544      -0.01597227
N       -0.02959002       0.47776639       0.00483254
C       -1.41232866       0.49604705       0.01731274
S       -2.36736132      -0.97555800      -0.07684635
C       -3.72459252       0.09516984      -0.00148191
N       -3.49373849       1.38379769       0.07942960
N       -2.12244601       1.61968549       0.08850084
O       -4.99058332      -0.33375554      -0.02467204
H        2.49811345      -0.57354873      -2.12412071
H        5.81427754       0.67364599       0.02700813
H        2.23668775       0.28552729       2.07854968
H       -5.48852730       0.49719800       0.03067375
19
Properties=species:S:1:pos:R:3 energy=-9.307860113548974 constraints="[\"7,6,2,1=90\"]" angle=90 pbc="F F F"
N        4.21123397       0.29202024      -1.04532782
C        2.90076466      -0.00990041      -1.08346082
C        2.17155013      -0.18746581       0.07696827
C        2.82231929      -0.03055599       1.28407045
N        4.13249909       0.27072964       1.34409763
C        4.75747755       0.41857361       0.17029480
C        0.76509930      -0.52297222       0.03747221
O        0.46359366      -1.70260335       0.01877588
N       -0.03499762       0.48899615       0.05100914
C       -1.41764771       0.50153690       0.02646440
S       -2.36450065      -0.97622766      -0.05309963
C       -3.72734343       0.08984709      -0.03610428
N       -3.50359121       1.38100663       0.02032564
N       -2.13384030       1.62320198       0.05662046
O       -4.99073038      -0.34524210      -0.07851004
H        2.43831719      -0.11517604      -2.06466716
H        5.81690438       0.66268930       0.20754019
H        2.29543944      -0.15299871       2.22993493
H       -5.49311144       0.48454786      -0.05487092
19
Properties=species:S:1:pos:R:3 energy=-9.313026739003552 constraints="[\"7,6,2,1=100\"]" angle=100 pbc="F F F"
N        4.15280810       0.50785305      -1.03244983
C        2.83840995       0.22070119      -1.05485046
C        2.16971471      -0.16732988       0.09106808
C        2.88942550      -0.25347864       1.26564329
N        4.20350081       0.03225864       1.30992877
C        4.76510179       0.40231162       0.15313576
C        0.76395897      -0.50816971       0.06425245
O        0.46759399      -1.68909180       0.04017417
N       -0.04012364       0.50070683       0.04585182
C       -1.42263503       0.50722080       0.01329166
S       -2.36448970      -0.97587315       0.00941621
C       -3.73085606       0.08502556      -0.03153692
N       -3.51152036       1.37814846      -0.03948072
N       -2.14267001       1.62655250      -0.01219377
O       -4.99271258      -0.35596157      -0.05387206
H        2.32269525       0.30208297      -2.01155699
H        5.82748764       0.63492299       0.17748817
H        2.41548583      -0.56214520       2.19695241
H       -5.49786965       0.47224211      -0.07367420
19
Properties=species:S:1:pos:R:3 energy=-9.329723372029703 constraints="[\"7,6,2,1=110\"]" angle=110 pbc="F F F"
N        4.10044764       0.71180285      -0.98199743
C        2.78323627       0.43582661      -0.98788894
C        2.16863509      -0.15059822       0.10353604
C        2.94962118      -0.46021036       1.19910528
N        4.26668806      -0.18688009       1.22678773
C        4.77151193       0.39065433       0.13044431
C        0.76252778      -0.49482552       0.08445191
O        0.46976298      -1.67681242       0.05747836
N       -0.04515535       0.51101063       0.04287643
C       -1.42750290       0.51189001       0.00440803
S       -2.36493633      -0.97313533       0.05505291
C       -3.73432312       0.08139720      -0.02820240
N       -3.51881072       1.37405136      -0.08279747
N       -2.15077272       1.62745892      -0.06170511
O       -4.99483393      -0.36391362      -0.03633327
H        2.22060502       0.69043373      -1.88610269
H        5.83601112       0.61445040       0.14146672
H        2.52294379      -0.94116879       2.07885429
H       -5.50238775       0.46146038      -0.08774302
19
Properties=species:S:1:pos:R:3 energy=-9.352800530344677 constraints="[\"7,6,2,1=120\"]" angle=120 pbc="F F F"
N        4.05869713       0.89566759      -0.89841803
C        2.74040677       0.62393920      -0.89401997
C        2.16897645      -0.14203201       0.10724877
C        2.99758567      -0.64020292       1.09384202
N        4.31604720      -0.37284559       1.11062427
C        4.77573759       0.38757268       0.11047947
C        0.76115412      -0.48703844       0.08983986
O        0.46937536      -1.66961374       0.06339763
N       -0.04942075       0.51686191       0.04040078
C       -1.43173613       0.51421180       0.00096830
S       -2.36643498      -0.97162344       0.07343913
C       -3.73770116       0.07913846      -0.02541096
N       -3.52452210       1.37128581      -0.09850447
N       -2.15696178       1.62746078      -0.08076439
O       -4.99741019      -0.36851310      -0.02715463
H        2.14188498       1.02941342      -1.71002751
H        5.84103207       0.60781166       0.11315037
H        2.60844507      -1.27008092       1.89342755
H       -5.50644489       0.45511001      -0.09057635
19
Properties=species:S:1:pos:R:3 energy=-9.376360962837108 constraints="[\"7,6,2,1=130\"]" angle=130 pbc="F F F"
N        4.01155057       1.02983644      -0.92830200
C        2.69345395       0.75930865      -0.88920470
C        2.17254879      -0.14713035       0.01995240
C        3.05410266      -0.78398198       0.87339506
N        4.37310707      -0.51939700       0.85422177
C        4.78082970       0.38001354      -0.04789008
C        0.76116500      -0.48866612       0.03619005
O        0.46574726      -1.67100429       0.04081089
N       -0.05120212       0.51475726      -0.01002820
C       -1.43410284       0.51243725      -0.01693265
S       -2.36812406      -0.97109915       0.09871569
C       -3.74040144       0.07971177       0.01553748
N       -3.52786415       1.37036835      -0.08195047
N       -2.16005350       1.62516560      -0.09927831
O       -5.00020213      -0.36642875       0.04917023
H        2.05475415       1.28041147      -1.60287410
H        5.84607017       0.59903354      -0.07353274
H        2.70812757      -1.52473722       1.59401553
H       -5.50985711       0.45675852      -0.01489665
19
Properties=species:S:1:pos:R:3 energy=-9.395900097021867 constraints="[\"7,6,2,1=140\"]" angle=140 pbc="F F F"
N        4.00214954       1.19314538      -0.64916389
C        2.68472054       0.91620018      -0.64686466
C        2.17283036      -0.14314180       0.08776042
C        3.06626623      -0.91845779       0.80569058
N        4.38449998      -0.64975317       0.82102910
C        4.78152408       0.39789723       0.09119781
C        0.75817268      -0.48478160       0.06459881
O        0.46173787      -1.66705562       0.04377472
N       -0.05721354       0.51754317       0.03288345
C       -1.43988005       0.51290783       0.00314606
S       -2.37319505      -0.97481687       0.05167004
C       -3.74563019       0.07660942      -0.02037291
N       -3.53366754       1.37004609      -0.07122492
N       -2.16622495       1.62686994      -0.05587176
O       -5.00504490      -0.37187727      -0.02422676
H        2.04081722       1.55731260      -1.24968642
H        5.84610851       0.62153077       0.09473511
H        2.73138153      -1.77638164       1.38851192
H       -5.51492660       0.45240481      -0.06967164
19
Properties=species:S:1:pos:R:3 energy=-9.409099250879759 constraints="[\"7,6,2,1=150\"]" angle=150 pbc="F F F"
N        3.98324741       1.30285065      -0.49027639
C        2.66656197       1.02217505      -0.49528558
C        2.17528797      -0.14647791       0.07171427
C        3.09246717      -1.01932541       0.63368397
N        4.41023720      -0.74867292       0.65327930
C        4.78478775       0.40362867       0.08897276
C        0.75633121      -0.48571590       0.04599691
O        0.45583935      -1.66730905       0.02792630
N       -0.06135576       0.51576263       0.02870566
C       -1.44424568       0.51093641       0.00555566
S       -2.37788099      -0.97725856       0.02887107
C       -3.75023478       0.07565398      -0.01870639
N       -3.53805754       1.36975379      -0.04680370
N       -2.17050165       1.62592208      -0.03158357
O       -5.00979419      -0.37238443      -0.02671818
H        2.00820777       1.75100825      -0.96912113
H        5.84880573       0.62980748       0.09753103
H        2.77901326      -1.96001994       1.08619098
H       -5.51956889       0.45272543      -0.05507400
19
Properties=species:S:1:pos:R:3 energy=-9.415955975386234 constraints="[\"7,6,2,1=160\"]" angle=160 pbc="F F F"
N        3.96926766       1.38329488      -0.31325759
C        2.65303446       1.10055923      -0.32503013
C        2.17746381      -0.14870586       0.05731304
C        3.11410735      -1.09417528       0.44675733
N        4.43169251      -0.82297105       0.46909398
C        4.78849886       0.40658436       0.08688427
C        0.75441223      -0.48593546       0.03146497
O        0.44998500      -1.66675341       0.01539469
N       -0.06548252       0.51438064       0.02560696
C       -1.44854846       0.50916909       0.00759910
S       -2.38253380      -0.97906338       0.00813875
C       -3.75475673       0.07475622      -0.01799625
N       -3.54235318       1.36910303      -0.02559434
N       -2.17470738       1.62472376      -0.01006048
O       -5.01444405      -0.37284244      -0.03014539
H        1.98389659       1.89631267      -0.65396751
H        5.85220376       0.63403151       0.09968674
H        2.81883248      -2.09697377       0.75514053
H       -5.52408457       0.45272858      -0.04336996
19
Properties=species:S:1:pos:R:3 energy=-9.418352754077125 constraints="[\"7,6,2,1=170\"]" angle=170 pbc="F F F"
N        3.96009755       1.43193126      -0.12263607
C        2.64397674       1.14877712      -0.13820215
C        2.17897424      -0.14955552       0.04736362
C        3.12958345      -1.14055138       0.24774104
N        4.44728557      -0.86997269       0.26886606
C        4.79179546       0.40696141       0.08197811
C        0.75285549      -0.48549257       0.02429484
O        0.44554670      -1.66568676       0.00928269
N       -0.06875509       0.51374229       0.02420299
C       -1.45192904       0.50804716       0.00887558
S       -2.38608880      -0.98006215      -0.00620683
C       -3.75826068       0.07406836      -0.01821431
N       -3.54576988       1.36840759      -0.01174786
N       -2.17808641       1.62375675       0.00439719
O       -5.01800468      -0.37328231      -0.03357126
H        1.96748864       1.98721686      -0.30707008
H        5.85546520       0.63448215       0.09630017
H        2.84752883      -2.18231485       0.39938884
H       -5.52758720       0.45242244      -0.03667093
19
Properties=species:S:1:pos:R:3 energy=-9.418764190201175 constraints="[\"7,6,2,1=180\"]" angle=180 pbc="F F F"
N        3.95580357       1.44659453       0.07546928
C        2.63964858       1.16363098       0.05890023
C        2.17956985      -0.14998988       0.04132488
C        3.13653307      -1.15559192       0.04161892
N        4.45439773      -0.88555048       0.05808377
C        4.79328178       0.40622342       0.07417546
C        0.75223675      -0.48541127       0.02306631
O        0.44378076      -1.66534280       0.00838143
N       -0.06996583       0.51343813       0.02411533
C       -1.45317656       0.50761717       0.00951116
S       -2.38743958      -0.98032947      -0.01482846
C       -3.75956621       0.07391582      -0.01899038
N       -3.54701212       1.36817596      -0.00414372
N       -2.17930826       1.62335692       0.01273646
O       -5.01934163      -0.37326682      -0.03661055
H        1.95950812       2.01599096       0.06002195
H        5.85701454       0.63350674       0.08755418
H        2.86035425      -2.20979336       0.02848895
H       -5.52888206       0.45246454      -0.03393047
19
Properties=species:S:1:pos:R:3 energy=-9.418352754077125 constraints="[\"7,6,2,1=190\"]" angle=190 pbc="F F F"
N        3.95649391       1.42626895       0.27330522
C        2.64031281       1.14351330       0.25570896
C        2.17920672      -0.15074272       0.03522687
C        3.13373813      -1.13812230      -0.16435371
N        4.45161591      -0.86783367      -0.15252698
C        4.79222569       0.40506021       0.06633498
C        0.75289171      -0.48636505       0.02178575
O        0.44523766      -1.66647710       0.00740853
N       -0.06845620       0.51308346       0.02399901
C       -1.45164719       0.50777293       0.01012568
S       -2.38604149      -0.97988940      -0.02333176
C       -3.75807359       0.07448509      -0.01971168
N       -3.54538658       1.36860143       0.00341929
N       -2.17764469       1.62354265       0.02099542
O       -5.01789927      -0.37245953      -0.03953925
H        1.96049411       1.97884709       0.42658238
H        5.85597993       0.63229565       0.07878880
H        2.85484725      -2.17660471      -0.34210964
H       -5.52736525       0.45328016      -0.03113315
19
Properties=species:S:1:pos:R:3 energy=-9.415955975386234 constraints="[\"7,6,2,1=200\"]" angle=200 pbc="F F F"
N        3.96230949       1.37177363       0.46289405
C        2.64600217       1.08994305       0.44156890
C        2.17804225      -0.15126077       0.02510568
C        3.12226761      -1.08972693      -0.36296381
N        4.44014338      -0.81922359      -0.35239721
C        4.78936030       0.40236909       0.06107504
C        0.75462679      -0.48775639       0.01451906
O        0.44943430      -1.66841127       0.00122799
N       -0.06479151       0.51293301       0.02256358
C       -1.44793207       0.50851492       0.01140543
S       -2.38232081      -0.97865717      -0.03761394
C       -3.75434879       0.07559054      -0.01986981
N       -3.54161296       1.36937198       0.01728631
N       -2.17383582       1.62411641       0.03544372
O       -5.01419994      -0.37111992      -0.04287523
H        1.97043683       1.87969554       0.77182840
H        5.85319205       0.62915584       0.07500238
H        2.83311298      -2.08609093      -0.69694086
H       -5.52366132       0.45446009      -0.02436523
19
Properties=species:S:1:pos:R:3 energy=-9.409099250879759 constraints="[\"7,6,2,1=210\"]" angle=210 pbc="F F F"
N        3.97330913       1.28543423       0.63801342
C        2.65659068       1.00626748       0.61006235
C        2.17634622      -0.15054062       0.01026909
C        3.10440231      -1.01334090      -0.54935780
N        4.42250410      -0.74391968      -0.53616632
C        4.78608100       0.39672259       0.05819917
C        0.75689896      -0.48850874      -0.00029880
O        0.45513965      -1.66986359      -0.01152763
N       -0.06018087       0.51342047       0.01930791
C       -1.44325602       0.50980405       0.01338675
S       -2.37738215      -0.97653487      -0.05837462
C       -3.74959370       0.07690534      -0.01910695
N       -3.53702282       1.36996069       0.03855090
N       -2.16924491       1.62473125       0.05695445
O       -5.00940026      -0.36968916      -0.04618837
H        1.98904507       1.72651974       1.08415905
H        5.85022043       0.62176774       0.07626228
H        2.79974197      -1.94466468      -1.02657916
H       -5.51900084       0.45532822      -0.01251128
19
Properties=species:S:1:pos:R:3 energy=-9.395900097021867 constraints="[\"7,6,2,1=220\"]" angle=220 pbc="F F F"
N        3.98955429       1.17023101       0.79430429
C        2.67214764       0.89540060       0.75925453
C        2.17440647      -0.14861874      -0.00637806
C        3.08170364      -0.91110602      -0.72065879
N        4.40027471      -0.64418093      -0.70339255
C        4.78324398       0.38839857       0.05486792
C        0.75918325      -0.48841492      -0.01931874
O        0.46097057      -1.67039495      -0.02773398
N       -0.05553265       0.51437064       0.01484981
C       -1.43852425       0.51132229       0.01564257
S       -2.37235711      -0.97371476      -0.08121122
C       -3.74477219       0.07826875      -0.01739837
N       -3.53241059       1.37014190       0.06296487
N       -2.16464730       1.62506843       0.08112209
O       -5.00451430      -0.36823040      -0.04852733
H        2.01658330       1.52562656       1.36098626
H        5.84792430       0.61042290       0.07779076
H        2.75802956      -1.75695499      -1.32698897
H       -5.51427323       0.45581597       0.00225583
19
Properties=species:S:1:pos:R:3 energy=-9.376360962837108 constraints="[\"7,6,2,1=230\"]" angle=230 pbc="F F F"
N        4.01164463       1.02926050       0.92861603
C        2.69354391       0.75875762       0.88948425
C        2.17254694      -0.14712046      -0.02017917
C        3.05401475      -0.78344639      -0.87410271
N        4.37302124      -0.51887404      -0.85489869
C        4.78083498       0.37998000       0.04772650
C        0.76116130      -0.48864535      -0.03648570
O        0.46574235      -1.67098028      -0.04180574
N       -0.05120053       0.51474981       0.01043261
C       -1.43410055       0.51242636       0.01747441
S       -2.36813432      -0.97103794      -0.09899467
C       -3.74040268       0.07972230      -0.01503101
N       -3.52785478       1.37031842       0.08323121
N       -2.16004224       1.62510415       0.10057883
O       -5.00020702      -0.36639667      -0.04881234
H        2.05491607       1.27942078       1.60353884
H        5.84607816       0.59898353       0.07339726
H        2.70796687      -1.52375707      -1.59514495
H       -5.50985504       0.45675124       0.01581312
19
Properties=species:S:1:pos:R:3 energy=-9.352800530344677 constraints="[\"7,6,2,1=240\"]" angle=240 pbc="F F F"
N        4.04116329       0.86515955       1.03845488
C        2.72283161       0.59613520       1.00139474
C        2.17115176      -0.14890944      -0.02638469
C        3.01926629      -0.62916587      -1.00525042
N        4.33820126      -0.36409210      -0.98943873
C        4.77820495       0.37560597       0.03481319
C        0.76272639      -0.49137935      -0.04499303
O        0.46857949      -1.67365987      -0.04785540
N       -0.04710819       0.51297950       0.00718270
C       -1.42994801       0.51232012       0.01775446
S       -2.36529138      -0.96994911      -0.10320427
C       -3.73665004       0.08141839      -0.01240448
N       -3.52298917       1.37146488       0.09036614
N       -2.15495107       1.62520707       0.10612239
O       -4.99683101      -0.36366654      -0.04564823
H        2.10811885       0.98666485       1.81264106
H        5.84366261       0.59378257       0.05855401
H        2.64582654      -1.24241225      -1.82499755
H       -5.50576864       0.45957645       0.02325138
19
Properties=species:S:1:pos:R:3 energy=-9.329723372029703 constraints="[\"7,6,2,1=250\"]" angle=250 pbc="F F F"
N        4.08043624       0.67977545       1.12116851
C        2.76297546       0.40627887       1.09389200
C        2.17066849      -0.15723554      -0.02165133
C        2.97402958      -0.44658589      -1.10651700
N        4.29179879      -0.17529363      -1.10105890
C        4.77428843       0.37942954       0.01691632
C        0.76394292      -0.49902692      -0.03898461
O        0.46890223      -1.68075194      -0.04160629
N       -0.04286406       0.50739316       0.00542121
C       -1.42571117       0.51022156       0.01475344
S       -2.36414584      -0.97168395      -0.08493647
C       -3.73336382       0.08367542      -0.00976472
N       -3.51706520       1.37457929       0.07487136
N       -2.14849912       1.62568154       0.08762114
O       -4.99444801      -0.35924793      -0.03698201
H        2.18192235       0.64413114       1.98494202
H        5.83912039       0.60134813       0.03272143
H        2.56523235      -0.90918365      -2.00441521
H       -5.50170549       0.46594113       0.02001805
19
Properties=species:S:1:pos:R:3 energy=-9.313026739003552 constraints="[\"7,6,2,1=260\"]" angle=260 pbc="F F F"
N        4.13054483       0.47539222       1.17263495
C        2.81557849       0.19021026       1.16084449
C        2.17136353      -0.17351514      -0.00685458
C        2.91616934      -0.23735038      -1.16711322