19
Properties=species:S:1:pos:R:3 energy=-9.423090256008141 constraints="[\"10,9,8,6=0\"]" angle=0 pbc="F F F"
N        4.45973606      -0.89835869       0.00479140
C        3.14443949      -1.17934851       0.00391780
C        2.18299402      -0.17647605       0.00322706
C        2.63810390       1.13811091       0.00347601
N        3.95238142       1.43191303       0.00434775
C        4.79363171       0.39540343       0.00495975
C        0.75422534      -0.50664368       0.00227803
O        0.43911007      -1.68481911       0.00209435
N       -0.06265700       0.49660654       0.00170737
C       -1.44603226       0.49784576       0.00078102
S       -2.38890809      -0.98475454       0.00018463
C       -3.75486643       0.07755169      -0.00077352
N       -3.53459413       1.37066679      -0.00064254
N       -2.16537042       1.61789074       0.00027163
O       -5.01734323      -0.36228775      -0.00158139
H        2.87096893      -2.23471468       0.00377933
H        5.85650165       0.62707375       0.00566516
H        1.95659848       1.98882217       0.00297942
H       -5.52211360       0.46636274      -0.00189040
19
Properties=species:S:1:pos:R:3 energy=-9.417893425917471 constraints="[\"10,9,8,6=10\"]" angle=10 pbc="F F F"
N        4.45261259      -0.90137562      -0.16172328
C        3.13671527      -1.16656012      -0.24566562
C        2.18124320      -0.16386364      -0.13898197
C        2.64256108       1.13385530       0.05580126
N        3.95753745       1.41207374       0.13990169
C        4.79293724       0.37691642       0.02695191
C        0.75209380      -0.47641402      -0.23451930
O        0.43324145      -1.61984380      -0.51465010
N       -0.06198529       0.50883867      -0.03490812
C       -1.44498116       0.50710914      -0.03657169
S       -2.37949139      -0.98015648      -0.07651134
C       -3.75024367       0.07259688       0.00936478
N       -3.53613161       1.36487047       0.08029006
N       -2.16842802       1.61994266       0.06367861
O       -5.01018793      -0.37438571       0.01705408
H        2.85754902      -2.20908288      -0.39996381
H        5.85633128       0.59589233       0.09482472
H        1.96551614       1.98321204       0.14731300
H       -5.51873903       0.44989036       0.07538290
19
Properties=species:S:1:pos:R:3 energy=-9.402608247372436 constraints="[\"10,9,8,6=20\"]" angle=20 pbc="F F F"
N        4.31369869      -0.90082733      -1.39886362
C        2.98473642      -1.10723596      -1.41267469
C        2.09068845      -0.13696988      -0.97870490
C        2.62672807       1.06600482      -0.53186041
N        3.95533324       1.28541564      -0.51522022
C        4.72840648       0.28748774      -0.94988085
C        0.64640775      -0.38393251      -1.00344123
O        0.24524331      -1.39268649      -1.55983534
N       -0.09906344       0.52494175      -0.46477679
C       -1.47291013       0.52286230      -0.31546181
S       -2.40550788      -0.96425044      -0.38599883
C       -3.74958421       0.05597697      -0.00144310
N       -3.52254363       1.33304258       0.19557124
N       -2.16790550       1.60422659       0.02972774
O       -4.99861510      -0.40425889       0.12278830
H        2.64421853      -2.07593329      -1.77912647
H        5.80256658       0.45894446      -0.93777804
H        2.00007099       1.88469407      -0.17798827
H       -5.49172602       0.40141510       0.34458745
19
Properties=species:S:1:pos:R:3 energy=-9.37830331141744 constraints="[\"10,9,8,6=30\"]" angle=30 pbc="F F F"
N        4.26966394      -0.82724967      -1.62927498
C        2.93457935      -0.98225122      -1.67865980
C        2.07121484      -0.06091909      -1.10054763
C        2.64398860       1.03856532      -0.47083954
N        3.97909814       1.20619256      -0.41670788
C        4.72113078       0.26154157      -0.99953633
C        0.62015179      -0.25019045      -1.16693325
O        0.18445122      -1.12632873      -1.89589678
N       -0.09977019       0.57520109      -0.48103458
C       -1.47345946       0.56234427      -0.34669680
S       -2.37073229      -0.94536250      -0.42637913
C       -3.73184182       0.03807172      -0.00617907
N       -3.52821447       1.31373690       0.22425052
N       -2.18098308       1.61652639       0.05230443
O       -4.96935622      -0.45136990       0.12172710
H        2.56353184      -1.86939086      -2.19240922
H        5.80039144       0.39129641      -0.95802073
H        2.04225579       1.81352858       0.00404986
H       -5.47618927       0.33806693       0.36948483
19
Properties=species:S:1:pos:R:3 energy=-9.346617559702716 constraints="[\"10,9,8,6=40\"]" angle=40 pbc="F F F"
N        4.22495962      -0.69808675      -1.86867721
C        2.88560737      -0.80236691      -1.93319429
C        2.05283976       0.04203260      -1.21109984
C        2.66032493       1.01052652      -0.42004525
N        4.00006391       1.12664472      -0.34878671
C        4.71129418       0.26342092      -1.07809402
C        0.59697651      -0.08949922      -1.29675532
O        0.12827641      -0.81540474      -2.15876284
N       -0.09810660       0.62618012      -0.47672010
C       -1.47169194       0.60499709      -0.36554122
S       -2.33036888      -0.92293017      -0.46406562
C       -3.71207901       0.02102666      -0.01977444
N       -3.53501619       1.29421483       0.24522950
N       -2.19480002       1.62979696       0.07888874
O       -4.93796755      -0.49872411       0.10041130
H        2.48568422      -1.58535640      -2.57789204
H        5.79415043       0.35187096      -1.02367008
H        2.08331801       1.71887439       0.17448346
H       -5.46094822       0.27302825       0.36944284
19
Properties=species:S:1:pos:R:3 energy=-9.309399461534257 constraints="[\"10,9,8,6=50\"]" angle=50 pbc="F F F"
N        4.18440362      -0.50455587      -2.09767213
C        2.84238883      -0.56615505      -2.16171947
C        2.03723035       0.17180031      -1.30462042
C        2.67473062       0.98812028      -0.37761330
N        4.01743782       1.06041571      -0.30494497
C        4.70100361       0.30761936      -1.17047306
C        0.57834738       0.09011969      -1.39223869
O        0.08016114      -0.47521540      -2.35280583
N       -0.09434702       0.66733394      -0.45425849
C       -1.46758206       0.64386290      -0.37127182
S       -2.29154397      -0.89922369      -0.49998009
C       -3.69308628       0.00801838      -0.04009384
N       -3.54038210       1.27637679       0.26193409
N       -2.20557317       1.64006644       0.11154132
O       -4.90933862      -0.53766324       0.06179980
H        2.41743696      -1.22707678      -2.91753415
H        5.78613490       0.36113719      -1.11580502
H        2.11986605       1.60630782       0.32815882
H       -5.44756412       0.21691593       0.34891146
19
Properties=species:S:1:pos:R:3 energy=-9.268696673547957 constraints="[\"10,9,8,6=60\"]" angle=60 pbc="F F F"
N        4.15213193      -0.24655158      -2.29464018
C        2.80864556      -0.27756484      -2.34944363
C        2.02573944       0.32524989      -1.37436931
C        2.68662141       0.97344881      -0.33775082
N        4.03102512       1.01373368      -0.27264702
C        4.69239851       0.39913329      -1.25659065
C        0.56521029       0.28096535      -1.45378078
O        0.04309714      -0.11684180      -2.48349749
N       -0.08919097       0.69092251      -0.42081686
C       -1.46161134       0.67270889      -0.36551952
S       -2.26037992      -0.87762333      -0.53283820
C       -3.67745220       0.00082900      -0.06328376
N       -3.54265151       1.26199176       0.27608519
N       -2.21081108       1.64470909       0.14796105
O       -4.88758728      -0.56229407       0.01355146
H        2.36411375      -0.80249218      -3.19532040
H        5.77880766       0.42740228      -1.20885747
H        2.14941077       1.47896323       0.46474001
H       -5.43748724       0.17785429       0.31576587
19
Properties=species:S:1:pos:R:3 energy=-9.227553061143034 constraints="[\"10,9,8,6=70\"]" angle=70 pbc="F F F"
N        4.13053684       0.06641043      -2.43958456
C        2.78632009       0.05381155      -2.48316045
C        2.01901557       0.49586527      -1.41422498
C        2.69583734       0.96332566      -0.29426363
N        4.04110233       0.98354103      -0.23893739
C        4.68700552       0.53175162      -1.31697233
C        0.55772723       0.47610196      -1.48241571
O        0.01862050       0.25268293      -2.55530343
N       -0.08330876       0.69388290      -0.38554794
C       -1.45454209       0.68696369      -0.35090577
S       -2.24091024      -0.86195241      -0.56010612
C       -3.66705599      -0.00058771      -0.08496390
N       -3.54131097       1.25222279       0.28790344
N       -2.20970698       1.64289569       0.18320961
O       -4.87531571      -0.57068062      -0.03470584
H        2.32833639      -0.32388306      -3.39763666
H        5.77405187       0.54454733      -1.27787149
H        2.17078735       1.33622306       0.58515946
H       -5.43174894       0.15979745       0.27895180
19
Properties=species:S:1:pos:R:3 energy=-9.190902320328176 constraints="[\"10,9,8,6=80\"]" angle=80 pbc="F F F"
N        4.11907075       0.41692965      -2.51844917
C        2.77449612       0.41396976      -2.55301128
C        2.01673005       0.67484616      -1.41974504
C        2.70306998       0.95062194      -0.24362661
N        4.04873169       0.95933341      -0.19609766
C        4.68524849       0.69004883      -1.33887962
C        0.55512920       0.67002276      -1.47818980
O        0.00568079       0.62816567      -2.56822242
N       -0.07686597       0.67909752      -0.35536336
C       -1.44690414       0.68543484      -0.32948335
S       -2.23318850      -0.85506304      -0.57827310
C       -3.66206455       0.00189134      -0.10191532
N       -3.53713075       1.24739730       0.29549085
N       -2.20347918       1.63622441       0.21139058
O       -4.87227308      -0.56561355      -0.07548429
H        2.30839157       0.19313541      -3.51355867
H        5.77258918       0.69441273      -1.30672824
H        2.18524576       1.17492471       0.68891460
H       -5.43039181       0.16123071       0.24369913
19
Properties=species:S:1:pos:R:3 energy=-9.16441339870412 constraints="[\"10,9,8,6=90\"]" angle=90 pbc="F F F"
N        4.11535401       0.78365330      -2.52450553
C        2.77058184       0.78652658      -2.55339625
C        2.01795034       0.85263881      -1.38909691
C        2.70931305       0.92716855      -0.18646540
N        4.05513476       0.92796164      -0.14365637
C        4.68664492       0.85458470      -1.31820739
C        0.55619732       0.85830652      -1.44060330
O        0.00174862       1.00190912      -2.51933214
N       -0.06997315       0.65438397      -0.33327434
C       -1.43910710       0.67210783      -0.30363618
S       -2.23331717      -0.85653852      -0.58527008
C       -3.66079819       0.00600368      -0.11345571
N       -3.53172164       1.24718459       0.29643637
N       -2.19486568       1.62836578       0.22831319
O       -4.87511388      -0.55313940      -0.10560177
H        2.30014897       0.73060518      -3.53535568
H        5.77411419       0.85355033      -1.29041520
H        2.19522158       0.99191932       0.77246970
H       -5.43183430       0.17550007       0.21208903
19
Properties=species:S:1:pos:R:3 energy=-9.150811788478853 constraints="[\"10,9,8,6=100\"]" angle=100 pbc="F F F"
N        4.11904150       1.14382922      -2.45665443
C        2.77418901       1.15407259      -2.48389297
C        2.02210173       1.02069337      -1.32502422
C        2.71393789       0.88720199      -0.12794684
N        4.05973282       0.87832296      -0.08617320
C        4.69075728       1.00605346      -1.25637222
C        0.56029014       1.03812261      -1.37333823
O        0.00652787       1.36437043      -2.41171736
N       -0.06441006       0.63129434      -0.32236120
C       -1.43298566       0.65714833      -0.28068624
S       -2.23644563      -0.86084920      -0.58536988
C       -3.66117567       0.00976101      -0.11916305
N       -3.52720655       1.24935142       0.29406457
N       -2.18764287       1.62290530       0.23533926
O       -4.87928649      -0.54099558      -0.12295680
H        2.30333428       1.26828079      -3.46059212
H        5.77823075       0.99834452      -1.22981272
H        2.20004646       0.78798556       0.82811059
H       -5.43375467       0.19142616       0.19012310
19
Properties=species:S:1:pos:R:3 energy=-9.147257709632157 constraints="[\"10,9,8,6=110\"]" angle=110 pbc="F F F"
N        4.13217286       1.47671893      -2.31933466
C        2.78745778       1.50006443      -2.34936808
C        2.02922014       1.17255718      -1.23387338
C        2.71479440       0.82962458      -0.07560141
N        4.06026889       0.80519082      -0.03084898
C        4.69744637       1.12960368      -1.15899057
C        0.56758744       1.20758369      -1.28337216
O        0.02201181       1.70769713      -2.25447452
N       -0.06265288       0.61953790      -0.32504521
C       -1.43099597       0.65055857      -0.26924005
S       -2.23961709      -0.86136338      -0.58710703
C       -3.66230037       0.01149804      -0.11874690
N       -3.52579306       1.25005817       0.29628642
N       -2.18532234       1.62093656       0.23890483
O       -4.88193079      -0.53572795      -0.12647847
H        2.32188835       1.78482004      -3.29322276
H        5.78472413       1.11057504      -1.13020116
H        2.19588116       0.56977256       0.84695480
H       -5.43495614       0.19795480       0.18637932
19
Properties=species:S:1:pos:R:3 energy=-9.14735784752478 constraints="[\"10,9,8,6=120\"]" angle=120 pbc="F F F"
N        4.15459326       1.76734822      -2.12294301
C        2.81042480       1.81106540      -2.15787964
C        2.03900069       1.30335867      -1.12160649
C        2.71098785       0.75652976      -0.03600032
N        4.05565936       0.70923413       0.01336869
C        4.70601078       1.21740504      -1.03676230
C        0.57802444       1.36351708      -1.17419824
O        0.04813977       2.02511726      -2.05267448
N       -0.06492633       0.62134852      -0.33833464
C       -1.43336707       0.65469569      -0.26941275
S       -2.24113217      -0.85632627      -0.59336898
C       -3.66367687       0.01015023      -0.11351791
N       -3.52844639       1.24715459       0.30563526
N       -2.18915594       1.62182366       0.24346256
O       -4.88204723      -0.53979071      -0.11947631
H        2.35626487       2.26099189      -3.04106840
H        5.79274436       1.18119401      -1.00415622
H        2.18148009       0.34629558       0.82374838
H       -5.43539146       0.19099575       0.19969167
19
Properties=species:S:1:pos:R:3 energy=-9.144891135577357 constraints="[\"10,9,8,6=130\"]" angle=130 pbc="F F F"
N        4.18371795       2.00585858      -1.88151278
C        2.84072250       2.07694902      -1.91927108
C        2.05065687       1.40951131      -0.99335393
C        2.70302306       0.67133142      -0.01422913
N        4.04620694       0.59425491       0.03720686
C        4.71522348       1.26656640      -0.90320818
C        0.59105675       1.50201702      -1.04638832
O        0.08289049       2.30980391      -1.80718222
N       -0.06994488       0.63511562      -0.35631492
C       -1.43880163       0.66753355      -0.27551713
S       -2.23936102      -0.84723991      -0.60120433
C       -3.66456204       0.00530497      -0.10571122
N       -3.53522039       1.24068985       0.31882970
N       -2.19900957       1.62518870       0.24933986
O       -4.87901970      -0.55316064      -0.10726373
H        2.40297174       2.68102017      -2.71438526
H        5.80089561       1.20755797      -0.86858690
H        2.15854225       0.12646169       0.75676865
H       -5.43509133       0.17125044       0.22168111
19
Properties=species:S:1:pos:R:3 energy=-9.135825663042501 constraints="[\"10,9,8,6=140\"]" angle=140 pbc="F F F"
N        4.21657224       2.18672035      -1.61096715
C        2.87556361       2.29084412      -1.64485318
C        2.06340940       1.48900648      -0.85441534
C        2.69192274       0.57849083      -0.01461483
N        4.03276864       0.46614778       0.03176633
C        4.72394115       1.27788347      -0.77278606
C        0.60609675       1.61958841      -0.90028081
O        0.12410354       2.55475270      -1.51832948
N       -0.07632348       0.65914737      -0.37249766
C       -1.44590506       0.68657721      -0.28087237
S       -2.23247146      -0.83638325      -0.60480101
C       -3.66430875      -0.00309349      -0.09731251
N       -3.54656872       1.23201005       0.33004885
N       -2.21512821       1.63174489       0.25419684
O       -4.87228711      -0.57535570      -0.09445737
H        2.45771244       3.03289489      -2.32567184
H        5.80789017       1.19156628      -0.74166206
H        2.12969832      -0.08107270       0.64614783
H       -5.43434245       0.14065118       0.24272391
19
Properties=species:S:1:pos:R:3 energy=-9.11907705627317 constraints="[\"10,9,8,6=150\"]" angle=150 pbc="F F F"
N        4.25040391       2.30931436      -1.32850654
C        2.91232339       2.44950542      -1.34698564
C        2.07673780       1.54185696      -0.71005574
C        2.67913968       0.48425670      -0.04058831
N        4.01669824       0.33387094      -0.01117765
C        4.73141359       1.25671565      -0.66035503
C        0.62274939       1.71336159      -0.73597172
O        0.16993613       2.75289195      -1.18579054
N       -0.08273023       0.69155244      -0.37925431
C       -1.45334628       0.70907834      -0.27836210
S       -2.21858759      -0.82658556      -0.59605812
C       -3.66264908      -0.01482267      -0.08990339
N       -3.56371995       1.22344265       0.33165644
N       -2.23847428       1.64305343       0.25378796
O       -4.86168632      -0.60550782      -0.08495704
H        2.51622581       3.30850656      -1.88920193
H        5.81288427       1.14072257      -0.64214057
H        2.09811522      -0.26709207       0.49379507
H       -5.43418783       0.10215507       0.25235516
19
Properties=species:S:1:pos:R:3 energy=-9.096949847368945 constraints="[\"10,9,8,6=160\"]" angle=160 pbc="F F F"
N        4.28239511       2.38021880      -1.05103773
C        2.94822496       2.55455843      -1.03738017
C        2.09041017       1.57043556      -0.56432630
C        2.66696650       0.39718702      -0.09417622
N        4.00029107       0.21099778      -0.09880343
C        4.73737666       1.21535941      -0.58024924
C        0.64081307       1.78037391      -0.55204624
O        0.21850289       2.89553773      -0.80718412
N       -0.08756678       0.72853377      -0.36569390
C       -1.45952341       0.73098109      -0.25881401
S       -2.19618658      -0.82210801      -0.56150678
C       -3.65992475      -0.02895006      -0.08468865
N       -3.58847297       1.21908463       0.31163175
N       -2.27027762       1.66156774       0.23984927
O       -4.84799699      -0.64134316      -0.08185087
H        2.57364915       3.50482297      -1.41881348
H        5.81559403       1.07133302      -0.58853811
H        2.06820227      -0.42197545       0.30342803
H       -5.43676088       0.06135248       0.23745090
19
Properties=species:S:1:pos:R:3 energy=-9.075815853975818 constraints="[\"10,9,8,6=170\"]" angle=170 pbc="F F F"
N        4.35149173       2.41886015       0.01530085
C        3.02452346       2.60975783      -0.10045540
C        2.11601969       1.59820204       0.18226945
C        2.63360033       0.37825635       0.59982008
N        3.95863774       0.17482822       0.72327060
C        4.74777819       1.20921230       0.42153031
C        0.67433515       1.82724095       0.05516224
O        0.29076336       2.96976719      -0.12790554
N       -0.07420588       0.77223233       0.08347566
C       -1.45036854       0.75435521       0.02020396
S       -2.11932583      -0.84385911      -0.19376543
C       -3.64618460      -0.03888678      -0.05755772
N       -3.64823481       1.25362186       0.16248561
N       -2.33896148       1.72248977       0.23141259
O       -4.81474222      -0.68077809      -0.15206072
H        2.69788274       3.59642869      -0.43003066
H        5.81984738       1.05164975       0.51748158
H        1.99245374      -0.46644333       0.85082190
H       -5.45221381       0.04067078      -0.02730657
19
Properties=species:S:1:pos:R:3 energy=-9.066229011326097 constraints="[\"10,9,8,6=180\"]" angle=180 pbc="F F F"
N        4.33822627       2.44827857      -0.27571717
C        3.00823426       2.64692281      -0.22703347
C        2.10995487       1.59288461      -0.33240396
C        2.64212331       0.31977700      -0.49748398
N        3.97041944       0.10746575      -0.55095517
C        4.74841192       1.18678342      -0.43521003
C        0.66463256       1.83176522      -0.28085380
O        0.27584510       2.98586031      -0.32964671
N       -0.08249607       0.77974571      -0.17818739
C       -1.45899874       0.75428874      -0.10764278
S       -2.11829346      -0.85675564       0.02528688
C       -3.64825658      -0.04670563       0.04884380
N       -3.65853918       1.26167685      -0.03379876
N       -2.35385641       1.73910500      -0.12760812
O       -4.81143760      -0.69780930       0.14642224
H        2.67067811       3.67564364      -0.09799245
H        5.82299863       1.02261212      -0.47614967
H        2.01104340      -0.56319919      -0.59560590
H       -5.45270952       0.03088602       0.13163844
19
Properties=species:S:1:pos:R:3 energy=-9.075815853975818 constraints="[\"10,9,8,6=190\"]" angle=190 pbc="F F F"
N        4.34867479       2.42592976      -0.01076244
C        3.02140826       2.61524311       0.10417346
C        2.11428771       1.60260342      -0.17911215
C        2.63358240       0.38327653      -0.59634190
N        3.95893778       0.18143043      -0.71897326
C        4.74665612       1.21675589      -0.41674601
C        0.67225247       1.82992102      -0.05289622
O        0.28720388       2.97198852       0.12993361
N       -0.07501086       0.77401951      -0.08167154
C       -1.45119004       0.75449946      -0.01925044
S       -2.11837095      -0.84451235       0.19430658
C       -3.64610517      -0.04136344       0.05715458
N       -3.64956243       1.25114184      -0.16289091
N       -2.34080744       1.72157249      -0.23100896
O       -4.81395382      -0.68464937       0.15093574
H        2.69338619       3.60152330       0.43354605
H        5.81897174       1.06047335      -0.51203451
H        1.99359997      -0.46218798      -0.84773936
H       -5.45220903       0.03603795       0.02578708
19
Properties=species:S:1:pos:R:3 energy=-9.096949847368945 constraints="[\"10,9,8,6=200\"]" angle=200 pbc="F F F"
N        4.28451457       2.37322921       1.05553463
C        2.95056221       2.54916149       1.04105252
C        2.09186567       1.56606308       0.56746853
C        2.66731138       0.39212674       0.09767483
N        4.00040961       0.20434587       0.10312607
C        4.73839602       1.20782716       0.58502738
C        0.64252810       1.77773186       0.55429259
O        0.22139194       2.89339922       0.80916946
N       -0.08699164       0.72676189       0.36749007
C       -1.45887805       0.73084703       0.25976229
S       -2.19758176      -0.82136129       0.56199966
C       -3.66007702      -0.02645678       0.08427701
N       -3.58689042       1.22149144      -0.31199911
N       -2.26821237       1.66240057      -0.23940194
O       -4.84887753      -0.63743109       0.08070493
H        2.57688545       3.49987281       1.42225430
H        5.81643535       1.06251367       0.59398261
H        2.06781548      -0.42632060      -0.30029944
H       -5.43660465       0.06596672      -0.23896062
19
Properties=species:S:1:pos:R:3 energy=-9.11907705627317 constraints="[\"10,9,8,6=210\"]" angle=210 pbc="F F F"
N        4.35372619       2.28339623       0.55043857
C        3.02729796       2.40663407       0.73979434
C        2.12241610       1.54761106       0.13071415
C        2.64148807       0.55793769      -0.69433441
N        3.96610228       0.42547602      -0.89531780
C        4.75242931       1.29724833      -0.25845477
C        0.68176846       1.70012262       0.34390015
O        0.28503912       2.69222303       0.93240666
N       -0.06041680       0.70486568      -0.01341388
C       -1.43329901       0.71569300       0.05113169
S       -2.15390744      -0.84996967       0.32360172
C       -3.64875595      -0.01387246       0.06511154
N       -3.60190030       1.25704432      -0.25639275
N       -2.27718089       1.68314333      -0.30075606
O       -4.83932289      -0.61525530       0.15178616
H        2.69803634       3.21162866       1.39732409
H        5.82409347       1.19524983      -0.41497065
H        2.00146154      -0.15132353      -1.21873341
H       -5.44859767       0.11235392      -0.05240344
19
Properties=species:S:1:pos:R:3 energy=-9.135825663042501 constraints="[\"10,9,8,6=220\"]" angle=220 pbc="F F F"
N        4.35418418       2.13120956       0.83482231
C        3.02644876       2.21839314       1.03435193
C        2.12707279       1.47861421       0.27858455
C        2.65258763       0.64944521      -0.70408985
N        3.97869154       0.55512859      -0.91667398
C        4.75957113       1.30233816      -0.13191814
C        0.68524434       1.58995693       0.50586450
O        0.27917998       2.46398776       1.25420775
N       -0.05441693       0.67118313      -0.01897750
C       -1.42527829       0.69237330       0.05310366
S       -2.16820309      -0.86060874       0.33476288
C       -3.64983692      -0.00161617       0.07214096
N       -3.58324800       1.26662206      -0.25819364
N       -2.25215068       1.67194466      -0.30476120
O       -4.84973579      -0.58380085       0.16162544
H        2.69146639       2.89541706       1.82059517
H        5.83235215       1.23003799      -0.29707990
H        2.01664511       0.04290589      -1.34861645
H       -5.44758706       0.15264372      -0.04449738
19
Properties=species:S:1:pos:R:3 energy=-9.144891135577357 constraints="[\"10,9,8,6=230\"]" angle=230 pbc="F F F"
N        4.35409165       1.91925474       1.09833329
C        3.02468416       1.97493754       1.29756045
C        2.13154876       1.38170865       0.41586335
C        2.66478913       0.73534058      -0.69185560
N        3.99278535       0.67485573      -0.90515522
C        4.76737926       1.27063329       0.00534941
C        0.68812808       1.45639515       0.64556817
O        0.27279377       2.19192480       1.52650809
N       -0.04960494       0.64556246      -0.03483192
C       -1.41853211       0.67258093       0.04675976
S       -2.17742193      -0.87146952       0.33223777
C       -3.64965643       0.00749678       0.08026489
N       -3.56923282       1.27565220      -0.24906156
N       -2.23359094       1.66468182      -0.30239469
O       -4.85629817      -0.55982780       0.17488138
H        2.68305427       2.50525258       2.18682374
H        5.84158836       1.22443350      -0.15989275
H        2.03372835       0.25323001      -1.43825462
H       -5.44606985       0.18500514      -0.02407857
19
Properties=species:S:1:pos:R:3 energy=-9.14735784752478 constraints="[\"10,9,8,6=240\"]" angle=240 pbc="F F F"
N        4.35405327       1.65155576       1.32355729
C        3.02306454       1.68208266       1.51709739
C        2.13569698       1.25856720       0.53733332
C        2.67623914       0.81107103      -0.66128695
N        4.00604873       0.77820892      -0.86947400
C        4.77476041       1.20010216       0.13802685
C        0.69076758       1.30310077       0.76323738
O        0.26768433       1.88360451       1.75026819
N       -0.04636914       0.62992250      -0.05305209
C       -1.41350896       0.65876539       0.03962634
S       -2.18201140      -0.88033911       0.32454924
C       -3.64842646       0.01313295       0.08789307
N       -3.55961608       1.28228336      -0.23695417
N       -2.22122658       1.66032251      -0.29811739
O       -4.85924902      -0.54442319       0.18757654
H        2.67523147       2.05187224       2.48197319
H        5.85033183       1.17492905      -0.02283555
H        2.04982199       0.47147380      -1.48597699
H       -5.44404029       0.20670142      -0.00199634
19
Properties=species:S:1:pos:R:3 energy=-9.147257709632157 constraints="[\"10,9,8,6=250\"]" angle=250 pbc="F F F"
N        4.35518108       1.33633486       1.49490745
C        3.02306278       1.34871302       1.68202588
C        2.13967215       1.11253127       0.63782600
C        2.68538612       0.87356145      -0.61688456
N        4.01655202       0.86135469      -0.81875028
C        4.78114693       1.09262725       0.25169351
C        0.69371685       1.13417189       0.85871789
O        0.26599070       1.54651806       1.92540749
N       -0.04532001       0.62584629      -0.06692862
C       -1.41080899       0.65302496       0.03862474
S       -2.18281743      -0.88542718       0.31788003
C       -3.64689136       0.01526538       0.09312389
N       -3.55473251       1.28545272      -0.22788466
N       -2.21526099       1.65840424      -0.29442729
O       -4.85945498      -0.53817535       0.19513798
H        2.67085647       1.54930987       2.69415923
H        5.85771751       1.08284952       0.09592430
H        2.06228213       0.68987018      -1.49204335
H       -5.44224187       0.21601360       0.01192805
19
Properties=species:S:1:pos:R:3 energy=-9.150811788478853 constraints="[\"10,9,8,6=260\"]" angle=260 pbc="F F F"
N        4.35845892       0.98599736       1.59896968
C        3.02595271       0.98688277       1.78309499
C        2.14363491       0.94857573       0.71237100
C        2.69099662       0.92092797      -0.56398367