19
Properties=species:S:1:pos:R:3 energy=-8.032261187523478 constraints="[\"9,8,6,2=0\"]" angle=0 pbc="F F F"
N       -0.14569628      -4.00120501      -0.83171179
C        0.31584434      -2.73990434      -0.88996012
C       -0.03588989      -1.79448295       0.05962281
C       -0.84748049      -2.20738509       1.10691441
N       -1.30477584      -3.47006657       1.18560742
C       -0.93901924      -4.29820751       0.20319765
C        0.51764388      -0.44342285      -0.01416781
O        1.71640895      -0.34679949      -0.21419517
N       -0.26375762       0.58413897      -0.09281320
C       -1.62735777       0.50901034      -0.11367618
S       -2.37360623       0.21973097      -1.66262499
C       -3.84554752       0.22895003      -0.74612004
N       -3.77018300       0.42382603       0.55135979
N       -2.44277898       0.59238611       0.92960033
O       -5.04525015       0.04240210      -1.30418360
H        0.97477061      -2.48849040      -1.72135629
H       -1.31180331      -5.31867886       0.25803036
H       -1.12742407      -1.53103904       1.91420944
H       -5.63882775       0.08495783      -0.53729664
19
Properties=species:S:1:pos:R:3 energy=-8.04818311245097 constraints="[\"9,8,6,2=10\"]" angle=10 pbc="F F F"
N        0.69849332      -3.79151019      -2.04611329
C        0.97707171      -2.73844263      -1.25637393
C        0.28042018      -1.54489139      -1.36185502
C       -0.70340205      -1.46801307      -2.33636442
N       -0.98346059      -2.50350931      -3.14773909
C       -0.27792769      -3.61967639      -2.94353584
C        0.66577749      -0.39338938      -0.54252646
O        1.86136910      -0.20122845      -0.39388206
N       -0.20369429       0.36191105       0.05283084
C       -1.54679294       0.13276494       0.18940186
S       -2.55188857       1.55614719       0.23281824
C       -3.84641873       0.41748270       0.40909321
N       -3.54904683      -0.86114175       0.43891752
N       -2.17440260      -1.03065098       0.32035134
O       -5.12706128       0.78689478       0.50474350
H        1.78239216      -2.86084403      -0.53192905
H       -0.50381709      -4.46597959      -3.58860159
H       -1.26586340      -0.55027382      -2.50393121
H       -5.58235490      -0.06682423       0.58482941
19
Properties=species:S:1:pos:R:3 energy=-8.09410477174887 constraints="[\"9,8,6,2=20\"]" angle=20 pbc="F F F"
N       -0.77640022      -3.57274263      -1.62777347
C       -0.54108557      -2.28254132      -1.33141354
C        0.01913968      -1.90479475      -0.11872218
C        0.33196127      -2.91299292       0.77763792
N        0.08981230      -4.20845436       0.50475112
C       -0.46426176      -4.46662043      -0.68387544
C        0.37042702      -0.51812313       0.19661202
O        1.42441569      -0.33157023       0.78239189
N       -0.41470217       0.47172225      -0.09019863
C       -1.75894433       0.39187415      -0.33927019
S       -2.39985528       1.60356263      -1.41566955
C       -3.90834524       0.79821337      -1.13307828
N       -3.91800297      -0.23830867      -0.32689823
N       -2.63583361      -0.47485533       0.15574413
O       -5.05242651       1.18322674      -1.70627995
H       -0.78368927      -1.54905448      -2.09977501
H       -0.66006549      -5.51127555      -0.91565198
H        0.79405564      -2.69160345       1.73952816
H       -5.68626111       0.53744895      -1.35451353
19
Properties=species:S:1:pos:R:3 energy=-8.133209707274576 constraints="[\"9,8,6,2=30\"]" angle=30 pbc="F F F"
N       -0.49073647      -3.37768878      -2.02123075
C       -0.34421618      -2.12331266      -1.55951237
C        0.12122073      -1.86956647      -0.27626364
C        0.43203266      -2.96395083       0.51399282
N        0.27848541      -4.22650709       0.07375634
C       -0.18687353      -4.36398372      -1.17151505
C        0.36918503      -0.51502429       0.22545267
O        1.33498226      -0.35774307       0.95461936
N       -0.40425888       0.47612872      -0.08475340
C       -1.74304237       0.38423884      -0.35970831
S       -2.40668449       1.68139894      -1.31605981
C       -3.89252285       0.80543064      -1.14585433
N       -3.88025392      -0.31082405      -0.45429165
N       -2.59799543      -0.55839128       0.02252294
O       -5.04032356       1.21446088      -1.69450209
H       -0.58085229      -1.31460770      -2.25036587
H       -0.31074500      -5.38074207      -1.53787914
H        0.81972030      -2.84085515       1.52509849
H       -5.65811024       0.51632538      -1.42350457
19
Properties=species:S:1:pos:R:3 energy=-8.171370679893979 constraints="[\"9,8,6,2=40\"]" angle=40 pbc="F F F"
N       -0.16066592      -3.14473472      -2.35068278
C       -0.12462724      -1.94522478      -1.74369284
C        0.24734211      -1.81377702      -0.41217872
C        0.57984239      -2.97259483       0.27075799
N        0.53689680      -4.18265117      -0.31696423
C        0.15768898      -4.20264727      -1.59821332
C        0.36740757      -0.51347884       0.25472349
O        1.22221101      -0.39851019       1.11817208
N       -0.38955236       0.48164622      -0.07889003
C       -1.72201214       0.37888253      -0.38033703
S       -2.41685722       1.75139929      -1.19956422
C       -3.87308689       0.81252157      -1.15556441
N       -3.83077018      -0.37444644      -0.59537911
N       -2.54722938      -0.63151224      -0.12711865
O       -5.02704527       1.24263118      -1.67442453
H       -0.37441465      -1.07841460      -2.35489030
H        0.12340902      -5.17586092      -2.08302796
H        0.89501603      -2.94597572       1.31371187
H       -5.62356610       0.49813942      -1.49452991
19
Properties=species:S:1:pos:R:3 energy=-8.206309008322172 constraints="[\"9,8,6,2=50\"]" angle=50 pbc="F F F"
N        0.20625047      -2.88358102      -2.60790142
C        0.11162534      -1.75591023      -1.88087024
C        0.39341034      -1.74055495      -0.52070247
C        0.77203179      -2.93996892       0.06154194
N        0.86013658      -4.07996533      -0.64849324
C        0.56252057      -3.98983231      -1.94798711
C        0.36261595      -0.51456654       0.28411171
O        1.08639150      -0.45677568       1.26517662
N       -0.37309733       0.48737405      -0.07162281
C       -1.69828489       0.37649077      -0.40062321
S       -2.43301179       1.81217965      -1.06153280
C       -3.85233755       0.82232075      -1.16055033
N       -3.77151395      -0.42315757      -0.75208418
N       -2.48547678      -0.68920935      -0.29580155
O       -5.01497330       1.27100397      -1.64311421
H       -0.17098791      -0.85021526      -2.41676857
H        0.63424566      -4.90549035      -2.53090405
H        1.01850868      -3.00455551       1.12119710
H       -5.58480608       0.48875235      -1.56689605
19
Properties=species:S:1:pos:R:3 energy=-8.236060302757885 constraints="[\"9,8,6,2=60\"]" angle=60 pbc="F F F"
N        0.60154427      -2.60356473      -2.78722159
C        0.35913218      -1.56254901      -1.97026050
C        0.55481138      -1.65320343      -0.59746924
C        1.00203873      -2.86782961      -0.10062971
N        1.23863122      -3.92235044      -0.90278421
C        1.01718821      -3.73305026      -2.20665261
C        0.35372906      -0.51932947       0.31194088
O        0.92696455      -0.53366558       1.38946383
N       -0.35656623       0.49233714      -0.06284216
C       -1.67360506       0.37736407      -0.42019442
S       -2.45765823       1.85869933      -0.89846949
C       -3.83239273       0.83558396      -1.15854517
N       -3.70391054      -0.45028052      -0.92440518
N       -2.41388440      -0.72469852      -0.48452512
O       -5.00656158       1.29924914      -1.59711068
H        0.02566725      -0.63874095      -2.44221946
H        1.20886621      -4.57888526      -2.86330341
H        1.18466780      -3.01518279       0.96365697
H       -5.54388828       0.49180218      -1.63843752
19
Properties=species:S:1:pos:R:3 energy=-8.25951025703182 constraints="[\"9,8,6,2=70\"]" angle=70 pbc="F F F"
N        1.01575790      -2.31223770      -2.88505890
C        0.61333820      -1.37050632      -2.01219700
C        0.72603402      -1.55488224      -0.63896420
C        1.25886252      -2.75915594      -0.20406009
N        1.65660408      -3.71491859      -1.06408045
C        1.50682146      -3.43955489      -2.36265297
C        0.34066427      -0.52853059       0.33666393
O        0.74607690      -0.63042090       1.48349849
N       -0.34096918       0.49576368      -0.05214142
C       -1.64908005       0.38135864      -0.43828108
S       -2.49168349       1.88221602      -0.71240103
C       -3.81449247       0.85043302      -1.14859684
N       -3.62954040      -0.44926813      -1.10798075
N       -2.33397362      -0.73001222      -0.68865751
O       -5.00304733       1.32285100      -1.53623429
H        0.21559343      -0.44966086      -2.43795458
H        1.82847739      -4.20505917      -3.06543983
H        1.38196816      -2.97864066       0.85632361
H       -5.50227048       0.50797000      -1.70681257
19
Properties=species:S:1:pos:R:3 energy=-8.277051803527 constraints="[\"9,8,6,2=80\"]" angle=80 pbc="F F F"
N        2.02940682      -1.60093620      -3.68389489
C        1.76048419      -1.54808961      -2.36672917
C        0.96577037      -0.54794621      -1.82277170
C        0.44975910       0.39795449      -2.70035179
N        0.71818186       0.36373800      -4.01923567
C        1.48826347      -0.64194515      -4.44106784
C        0.71537480      -0.49972554      -0.37719843
O        1.32926984      -1.25886914       0.35536658
N       -0.07844271       0.40002185       0.09446796
C       -1.43449740       0.23591551       0.02931796
S       -2.37355053       1.19254526       1.14292006
C       -3.72773798       0.46480697       0.34169068
N       -3.49261926      -0.36396649      -0.65006552
N       -2.12191575      -0.49334977      -0.84369652
O       -4.99411319       0.72668863       0.67918581
H        2.20306273      -2.32674212      -1.74521155
H        1.70539563      -0.67853971      -5.50637735
H       -0.17769317       1.22024512      -2.35836526
H       -5.49162664       0.17585016       0.05360022
19
Properties=species:S:1:pos:R:3 energy=-8.29014564932933 constraints="[\"9,8,6,2=90\"]" angle=90 pbc="F F F"
N        2.43555094      -1.32235806      -3.56692964
C        2.00885767      -1.38565156      -2.29264448
C        1.13965961      -0.43990902      -1.76576597
C        0.71534834       0.57442870      -2.61575943
N        1.13994887       0.65452655      -3.89112755
C        1.97394477      -0.30456538      -4.29969231
C        0.70869369      -0.52149215      -0.36621534
O        1.15236700      -1.40934462       0.34415768
N       -0.05855047       0.40128561       0.10095164
C       -1.41459991       0.25889596       0.01553075
S       -2.35026157       1.03860565       1.26174417
C       -3.70634174       0.46051008       0.34902224
N       -3.47336227      -0.19969744      -0.76280796
N       -2.10268638      -0.30910382      -0.96954868
O       -4.97227622       0.67691166       0.71904541
H        2.38523773      -2.21317804      -1.69097320
H        2.31803285      -0.24770369      -5.33010009
H        0.03288388       1.35695585      -2.28566958
H       -5.47089989       0.23684444       0.01198035
19
Properties=species:S:1:pos:R:3 energy=-8.298017086340158 constraints="[\"9,8,6,2=100\"]" angle=100 pbc="F F F"
N        2.82872292      -1.10830239      -3.36143285
C        2.24031170      -1.26440707      -2.16176932
C        1.31726228      -0.34782186      -1.67739812
C        1.01089545       0.73617886      -2.49098103
N        1.59575788       0.90750665      -3.69187924
C        2.47174333      -0.02887619      -4.06404742
C        0.70192425      -0.53258573      -0.36077008
O        0.97471075      -1.52472512       0.29571382
N       -0.04343425       0.40792494       0.10310968
C       -1.39910901       0.28292255       0.00321662
S       -2.33358775       0.87581272       1.34902934
C       -3.68975792       0.44523464       0.35789752
N       -3.45709488      -0.04157377      -0.84032499
N       -2.08620218      -0.12459574      -1.05890664
O       -4.95577494       0.60966083       0.75370328
H        2.52957654      -2.14284798      -1.58456422
H        2.94605364       0.10253548      -5.03416620
H        0.29198668       1.49835642      -2.19150704
H       -5.45413576       0.28067086      -0.01150717
19
Properties=species:S:1:pos:R:3 energy=-8.30289935283334 constraints="[\"9,8,6,2=110\"]" angle=110 pbc="F F F"
N        3.17608837      -0.96951506      -3.09749803
C        2.42979421      -1.18845233      -1.99982726
C        1.49259503      -0.26417250      -1.55983758
C        1.34221918       0.89608018      -2.30907735
N        2.08447550       1.12943323      -3.40824962
C        2.96109891       0.18000223      -3.74470732
C        0.69918926      -0.51875840      -0.35633338
O        0.81414131      -1.58491962       0.22670881
N       -0.03723482       0.43337478       0.09584057
C       -1.39225210       0.31185300      -0.01117332
S       -2.32525613       0.72487704       1.40122122
C       -3.68199620       0.41402369       0.36681581
N       -3.45068015       0.08613316      -0.88464542
N       -2.07981591       0.04067300      -1.11563377
O       -4.94776009       0.51892480       0.78335605
H        2.60176254      -2.12457356      -1.46819044
H        3.56290346       0.36185334      -4.63247448
H        0.62230855       1.66857826      -2.03948893
H       -5.44620790       0.28502148      -0.01595732
19
Properties=species:S:1:pos:R:3 energy=-8.3080496514576 constraints="[\"9,8,6,2=120\"]" angle=120 pbc="F F F"
N        3.47674318      -0.88940740      -2.79134093
C        2.58242124      -1.14151657      -1.81853904
C        1.65790481      -0.18847994      -1.41449588
C        1.68196921       1.03853789      -2.06557605
N        2.57278021       1.30486285      -3.03974740
C        3.42231666       0.32286138      -3.35162363
C        0.69936383      -0.48072069      -0.34807691
O        0.67375100      -1.59462222       0.15067034
N       -0.03910545       0.48155318       0.07772255
C       -1.39349644       0.35253716      -0.03126970
S       -2.31861200       0.56227918       1.43042772
C       -3.68032476       0.36502614       0.37477201
N       -3.45658540       0.20833278      -0.91083748
N       -2.08732193       0.21700471      -1.15653892
O       -4.94351985       0.39361722       0.81108990
H        2.62281587      -2.12910576      -1.35853301
H        4.14399225       0.53136488      -4.13843923
H        0.98534429       1.83877700      -1.81630779
H       -5.44558410       0.25592643      -0.00802175
19
Properties=species:S:1:pos:R:3 energy=-8.315443800795425 constraints="[\"9,8,6,2=130\"]" angle=130 pbc="F F F"
N        3.74040701      -0.85189104      -2.43139187
C        2.71303088      -1.10626133      -1.60116885
C        1.80551310      -0.11939324      -1.24188506
C        1.99290410       1.14618090      -1.78392567
N        3.01779482       1.41460080      -2.61520079
C        3.83669909       0.39773706      -2.89567894
C        0.69922681      -0.41563616      -0.33103375
O        0.54227976      -1.55685511       0.07345273
N       -0.04436058       0.56301152       0.04605408
C       -1.39873486       0.42548646      -0.06058137
S       -2.29526352       0.28050228       1.42718572
C       -3.67498845       0.27945690       0.37644636
N       -3.47685880       0.41652938      -0.91576789
N       -2.11402977       0.51957690      -1.17637330
O       -4.92855376       0.17556362       0.82907863
H        2.63056231      -2.12438222      -1.22008146
H        4.66629534       0.60803322      -3.56717906
H        1.32290169       1.97619646      -1.56015079
H       -5.44488542       0.20542548       0.00790301
19
Properties=species:S:1:pos:R:3 energy=-8.325922360494424 constraints="[\"9,8,6,2=140\"]" angle=140 pbc="F F F"
N        3.97438437      -0.82293908      -2.02844594
C        2.83649684      -1.07756673      -1.35788616
C        1.93335003      -0.07030205      -1.04670198
C        2.24718136       1.21753556      -1.46414839
N        3.38335718       1.48600951      -2.13529104
C        4.18638569       0.44818616      -2.38279074
C        0.70415941      -0.36813052      -0.31021749
O        0.45100978      -1.52468788      -0.01138665
N       -0.05183642       0.62214652       0.01082111
C       -1.40796444       0.47935453      -0.08729654
S       -2.26566663       0.01995839       1.36064050
C       -3.67136312       0.20773355       0.36273842
N       -3.50824295       0.61049680      -0.87784694
N       -2.15392892       0.79014492      -1.14205873
O       -4.91175642      -0.00805871       0.81235567
H        2.65997897      -2.11336470      -1.06705120
H        5.10561361       0.65863847      -2.92509632
H        1.59186249       2.06580623      -1.26678179
H       -5.44886514       0.18045271       0.02644158
19
Properties=species:S:1:pos:R:3 energy=-8.336749225906905 constraints="[\"9,8,6,2=150\"]" angle=150 pbc="F F F"
N        4.16919106      -0.80326569      -1.59853005
C        2.94453747      -1.06452190      -1.10742893
C        2.03598095      -0.04998913      -0.83766940
C        2.44008892       1.25315695      -1.10258975
N        3.66345581       1.52814440      -1.59358517
C        4.46302265       0.48213710      -1.81651506
C        0.71008237      -0.35593577      -0.29791473
O        0.39263440      -1.52235866      -0.12479279
N       -0.05798881       0.63844544      -0.01619728
C       -1.41635079       0.49630744      -0.10778552
S       -2.25083938      -0.12757230       1.29304640
C       -3.67346963       0.17517483       0.34927417
N       -3.53184534       0.72385514      -0.83664501
N       -2.18210687       0.93543060      -1.10124812
O       -4.90612856      -0.09300033       0.79202325
H        2.70151090      -2.11214773      -0.92839281
H        5.45256992       0.69787505      -2.21352636
H        1.78895240       2.10889563      -0.92458458
H       -5.45658964       0.18826072       0.04401848
19
Properties=species:S:1:pos:R:3 energy=-8.34597252446818 constraints="[\"9,8,6,2=160\"]" angle=160 pbc="F F F"
N        4.30853457      -0.81267310      -1.14493575
C        3.02280447      -1.07050321      -0.84560994
C        2.10907558      -0.05039831      -0.61682979
C        2.57546033       1.25523939      -0.71564206
N        3.86017995       1.52668355      -1.01406199
C        4.65865348       0.47521349      -1.21393086
C        0.71497175      -0.35322609      -0.28745066
O        0.35399255      -1.51941024      -0.25359414
N       -0.06212538       0.64447741      -0.04001601
C       -1.42269686       0.50609825      -0.12634857
S       -2.24025639      -0.24578634       1.22216866
C       -3.67561079       0.15209369       0.33509564
N       -3.54967796       0.81567197      -0.79222987
N       -2.20311081       1.04855729      -1.05559081
O       -4.90262069      -0.15422746       0.76874044
H        2.73407838      -2.12028051      -0.78858781
H        5.69769684       0.68811089      -1.45564871
H        1.92624288       2.11597077      -0.55564582
H       -5.46307030       0.20217677       0.06129827
19
Properties=species:S:1:pos:R:3 energy=-8.352545706354777 constraints="[\"9,8,6,2=170\"]" angle=170 pbc="F F F"
N        4.38514399      -0.85687884      -0.67798944
C        3.06554175      -1.09672809      -0.57668356
C        2.15031605      -0.06949615      -0.38898468
C        2.65295769       1.22435444      -0.31513974
N        3.97169907       1.47766248      -0.41467900
C        4.76807693       0.42056849      -0.59192421
C        0.71811414      -0.35310222      -0.27688475
O        0.33365608      -1.50677974      -0.38958878
N       -0.06419522       0.64864001      -0.06078703
C       -1.42680085       0.51576883      -0.14249771
S       -2.23086585      -0.35154949       1.14489833
C       -3.67628793       0.13156630       0.31902574
N       -3.56268457       0.89710803      -0.74286827
N       -2.21868251       1.14865294      -1.00255718
O       -4.89868216      -0.20879901       0.74013909
H        2.75022339      -2.13804980      -0.64654138
H        5.83458000       0.61885143      -0.67327732
H        2.00618009       2.08999137      -0.17272129
H       -5.46708217       0.21457648       0.07736211
19
Properties=species:S:1:pos:R:3 energy=-8.35566902899488 constraints="[\"9,8,6,2=180\"]" angle=180 pbc="F F F"
N        4.39557384      -0.93807151      -0.20967112
C        3.06992876      -1.14373198      -0.30700199
C        2.15866817      -0.10634838      -0.15999414
C        2.67275854       1.16118869       0.08753528
N        3.99756920       1.38010838       0.18750693
C        4.78907844       0.31588277       0.03247439
C        0.71910816      -0.35283625      -0.26596306
O        0.33106086      -1.48113860      -0.52630919
N       -0.06443101       0.65394167      -0.07770085
C       -1.42881080       0.52740189      -0.15505449
S       -2.22178445      -0.44855701       1.06081960
C       -3.67526221       0.11148149       0.30068484
N       -3.57160309       0.97015173      -0.68827863
N       -2.22983114       1.24014824      -0.94122032
O       -4.89371123      -0.26169720       0.70505391
H        2.74609510      -2.16588059      -0.50451553
H        5.86050271       0.48643826       0.11199414
H        2.03040429       2.03276352       0.21270430
H       -5.46856947       0.22234314       0.09116989
19
Properties=species:S:1:pos:R:3 energy=-8.35469867104623 constraints="[\"9,8,6,2=190\"]" angle=190 pbc="F F F"
N        4.33884155      -1.05679613       0.24769582
C        3.03488758      -1.21167912      -0.04347182
C        2.13428478      -0.16023332       0.06392626
C        2.63642106       1.06696181       0.48105987
N        3.93945497       1.23486551       0.77570858
C        4.72203862       0.16112783       0.64229495
C        0.71799765      -0.35126501      -0.25501431
O        0.34530857      -1.44191640      -0.65857941
N       -0.06328724       0.66131743      -0.09013875
C       -1.42915297       0.54126994      -0.16309540
S       -2.21284925      -0.53772219       0.97018776
C       -3.67284605       0.09113947       0.27996815
N       -3.57736542       1.03509995      -0.62859467
N       -2.23760364       1.32403051      -0.87133766
O       -4.88784405      -0.31433348       0.66297782
H        2.71950841      -2.20435762      -0.36566055
H        5.77592658       0.29053255       0.87880352
H        2.00156432       1.94625686       0.58936844
H       -5.46804515       0.22446610       0.10200048
19
Properties=species:S:1:pos:R:3 energy=-8.349246326061062 constraints="[\"9,8,6,2=200\"]" angle=200 pbc="F F F"
N        4.21494583      -1.21983874       0.67845284
C        2.95941203      -1.30660786       0.20398293
C        2.07805823      -0.23598071       0.27494383
C        2.54788799       0.93725389       0.85354615
N        3.80233628       1.03676623       1.33228760
C        4.56988843      -0.05001910       1.21832420
C        0.71457690      -0.35239726      -0.24559404
O        0.37327800      -1.39415407      -0.78346145
N       -0.06076640       0.66718808      -0.09908653
C       -1.42800997       0.55492458      -0.16686540
S       -2.20484641      -0.62034261       0.87271906
C       -3.66961777       0.07121449       0.25697423
N       -3.58009135       1.09274380      -0.56382707
N       -2.24189508       1.39944148      -0.79324989
O       -4.88193770      -0.36450701       0.61426327
H        2.66710002      -2.25990039      -0.23701733
H        5.58460361       0.02420203       1.60329833
H        1.92535905       1.82705110       0.94662591
H       -5.46614555       0.22405476       0.11031761
19
Properties=species:S:1:pos:R:3 energy=-8.339306823876441 constraints="[\"9,8,6,2=210\"]" angle=210 pbc="F F F"
N        4.02841635      -1.41467618       1.07331300
C        2.84691576      -1.41938262       0.43066623
C        1.99241940      -0.32563745       0.46912398
C        2.40985056       0.78248526       1.19687007
N        3.59002899       0.79962833       1.84449150
C        4.33728021      -0.30287904       1.74747045
C        0.71009747      -0.35196871      -0.23651556
O        0.41607639      -1.33588692      -0.89694401
N       -0.05809373       0.67433996      -0.10393135
C       -1.42648286       0.56926932      -0.16595985
S       -2.19784278      -0.69589494       0.76800084
C       -3.66635109       0.05096161       0.23117721
N       -3.58156140       1.14257524      -0.49412145
N       -2.24474225       1.46707127      -0.70660921
O       -4.87639365      -0.41399314       0.55786242
H        2.59221958      -2.32514669      -0.12017873
H        5.29208792      -0.29513268       2.26866320
H        1.80387002       1.68492165       1.27662013
H       -5.46385654       0.21892826       0.11514469
19
Properties=species:S:1:pos:R:3 energy=-8.325330240781508 constraints="[\"9,8,6,2=220\"]" angle=220 pbc="F F F"
N        3.78470057      -1.63695865       1.42038027
C        2.70059044      -1.54808764       0.62936508
C        1.88020666      -0.42799773       0.64137698
C        2.22728619       0.60578511       1.50301429
N        3.30978696       0.52902218       2.29961865
C        4.03156024      -0.59140252       2.21530863
C        0.70489669      -0.35147949      -0.22762486
O        0.47255053      -1.27032931      -0.99705172
N       -0.05574838       0.68107378      -0.10552035
C       -1.42516471       0.58299308      -0.16084278
S       -2.19271518      -0.76488247       0.65419798
C       -3.66384202       0.03102999       0.20211844
N       -3.58236508       1.18534795      -0.41870234
N       -2.24662530       1.52669290      -0.61065939
O       -4.87213773      -0.46123486       0.49309663
H        2.49653853      -2.39958723      -0.02027653
H        4.90755304      -0.65945390       2.85668525
H        1.64205938       1.52264511       1.57277994
H       -5.46200771       0.21119928       0.11676474
19
Properties=species:S:1:pos:R:3 energy=-8.312200203838634 constraints="[\"9,8,6,2=230\"]" angle=230 pbc="F F F"
N        3.87148046      -0.43250287       0.20528849
C        2.57366727      -0.11536125       0.03960640
C        1.84147335      -0.59864305      -1.03896517
C        2.49932587      -1.43100223      -1.93215331
N        3.79572711      -1.75688533      -1.77801584
C        4.41276867      -1.23862856      -0.71243987
C        0.43269471      -0.26078444      -1.24500190
O       -0.16464812      -0.73609836      -2.19794546
N       -0.10759334       0.58138938      -0.43771942
C       -1.29675046       0.24932784       0.14572467
S       -2.67502082       1.23107043      -0.27181770
C       -3.49906470       0.23462168       0.88383222
N       -2.80803457      -0.68138783       1.52483791
N       -1.48517109      -0.66255168       1.09395656
O       -4.79709547       0.37987189       1.16858250
H        2.13101560       0.53891150       0.79104581
H        5.46123602      -1.49669991      -0.58021871
H        1.99302534      -1.85232681      -2.80046577
H       -4.93854334      -0.31302815       1.83322444
19
Properties=species:S:1:pos:R:3 energy=-8.305240076073467 constraints="[\"9,8,6,2=240\"]" angle=240 pbc="F F F"
N        3.62607564      -0.85538087       0.57681700
C        2.39094739      -0.41568181       0.27115459
C        1.76394628      -0.78164850      -0.91440683
C        2.45694401      -1.63043619      -1.76437385
N        3.69133922      -2.07872505      -1.47085518
C        4.20943964      -1.66602676      -0.31065940
C        0.42656083      -0.30823095      -1.27345101
O       -0.08221516      -0.68191681      -2.31839921
N       -0.13420197       0.55661394      -0.50506467
C       -1.32180995       0.22853219       0.08295011
S       -2.61330741       1.38793858      -0.07373391
C       -3.47978115       0.28124047       0.94196266
N       -2.85518624      -0.79221562       1.37156673
N       -1.55761583      -0.81606506       0.87030895
O       -4.74344988       0.48921877       1.32501819
H        1.91278773       0.24159313       0.99771724
H        5.20724980      -2.02328175      -0.06548206
H        2.03114810      -1.96531126      -2.71007786
H       -4.92312185      -0.29405677       1.86925712
19
Properties=species:S:1:pos:R:3 energy=-8.29989086223315 constraints="[\"9,8,6,2=250\"]" angle=250 pbc="F F F"
N        3.30158984      -1.29442382       0.88946334
C        2.15686259      -0.72375879       0.46960649
C        1.65635240      -0.95607557      -0.80641472
C        2.37574132      -1.81398809      -1.62468402
N        3.52009648      -2.39318911      -1.21739253
C        3.92057872      -2.10162298       0.02333653
C        0.42164682      -0.33687105      -1.29114185
O        0.01701847      -0.60183483      -2.41193098
N       -0.15056361       0.54064406      -0.54546367
C       -1.33783745       0.21899763       0.04642848
S       -2.56087910       1.46019997       0.05453567
C       -3.46467327       0.30416606       0.97848065
N       -2.89523895      -0.84336511       1.27116621
N       -1.61600395      -0.88855315       0.72668049
O       -4.70250194       0.54259959       1.42301041
H        1.64848507      -0.06992607       1.17846756
H        4.84517911      -2.56488497       0.36078495
H        2.04618636      -2.04941882      -2.63648160
H       -4.91432024      -0.28165560       1.88971875
19
Properties=species:S:1:pos:R:3 energy=-8.294995534275712 constraints="[\"9,8,6,2=260\"]" angle=260 pbc="F F F"
N        2.92217333      -1.71539706       1.12080598
C        1.89216296      -1.01111501       0.61545928
C        1.52467433      -1.12057204      -0.72103346
C        2.25150959      -2.00055576      -1.50895028
N        3.28081041      -2.71389998      -1.01639718