19
Properties=species:S:1:pos:R:3 energy=-8.355624130211503 constraints="[\"7,6,2,1=0\"]" angle=0 pbc="F F F"
N        4.39075529      -0.95210679      -0.12359240
C        3.06837657      -1.14601603      -0.27466501
C        2.15536807      -0.11525779      -0.09524141
C        2.66455499       1.13352347       0.24166063
N        3.98597797       1.34037232       0.39669391
C        4.77941231       0.28364997       0.20458835
C        0.71944388      -0.34838904      -0.26323525
O        0.33444744      -1.46743054      -0.56478674
N       -0.06481742       0.65810361      -0.07624302
C       -1.42941040       0.53241781      -0.15462059
S       -2.22031239      -0.47552021       1.03658332
C       -3.67526049       0.10438940       0.29447959
N       -3.57352476       0.98931461      -0.67120472
N       -2.23224249       1.26618071      -0.91935486
O       -4.89289896      -0.27959993       0.69107524
H        2.74860027      -2.15325462      -0.54277840
H        5.84816235       0.44456609       0.32804553
H        2.02076387       1.99909191       0.39733958
H       -5.46897783       0.22073437       0.09156333
19
Properties=species:S:1:pos:R:3 energy=-8.349458030627536 constraints="[\"7,6,2,1=10\"]" angle=10 pbc="F F F"
N        4.39557076      -0.91181888      -0.21657687
C        3.07407256      -1.09686111      -0.38563935
C        2.14981589      -0.12924450      -0.01563060
C        2.64602081       1.05003136       0.52696165
N        3.96613782       1.24635234       0.70480682
C        4.77139594       0.25224635       0.32174309
C        0.71646887      -0.34789678      -0.21631724
O        0.32964598      -1.45986880      -0.54069113
N       -0.06585217       0.65453195      -0.00173259
C       -1.42889453       0.53922728      -0.11379034
S       -2.25152840      -0.48780648       1.03871049
C       -3.68631306       0.11483786       0.27570295
N       -3.55820053       1.01815261      -0.66962388
N       -2.21023356       1.29235674      -0.88191345
O       -4.91458292      -0.27005141       0.63708235
H        2.76391886      -2.04460029      -0.82642272
H        5.83928931       0.40528632       0.46154626
H        1.99181566       1.86425109       0.83831332
H       -5.47434909       0.24519034       0.03475054
19
Properties=species:S:1:pos:R:3 energy=-8.334536940398625 constraints="[\"7,6,2,1=20\"]" angle=20 pbc="F F F"
N        4.40310867      -0.80888384      -0.39805813
C        3.08146921      -0.99766048      -0.56198424
C        2.14915568      -0.12923469      -0.01267617
C        2.63415516       0.95981416       0.69987346
N        3.95415535       1.15773458       0.87665024
C        4.76919642       0.26019787       0.31598165
C        0.71794120      -0.34336139      -0.21951802
O        0.33175196      -1.45439955      -0.54734270
N       -0.06425526       0.65140464       0.02763103
C       -1.42635376       0.53911261      -0.09589116
S       -2.25757721      -0.49771552       1.04120200
C       -3.68644371       0.11153814       0.27227475
N       -3.55102438       1.02258306      -0.66461529
N       -2.20144625       1.29830639      -0.86431329
O       -4.91748080      -0.27609992       0.62108070
H        2.77667144      -1.86627149      -1.14622936
H        5.83712928       0.41535828       0.45312100
H        1.96975675       1.69450851       1.15451938
H       -5.47256725       0.24408505       0.01866551
19
Properties=species:S:1:pos:R:3 energy=-8.310515547063508 constraints="[\"7,6,2,1=30\"]" angle=30 pbc="F F F"
N        4.40376466      -0.67478254      -0.55817338
C        3.08272015      -0.86998709      -0.71939840
C        2.14819080      -0.13080513      -0.01078513
C        2.62543790       0.84260920       0.85551499
N        3.94475091       1.04451813       1.03284060
C        4.76460714       0.27237390       0.31390166
C        0.71983397      -0.33963713      -0.22391982
O        0.33466848      -1.44962777      -0.55562028
N       -0.06137727       0.64540195       0.06087057
C       -1.42239617       0.53799254      -0.07512842
S       -2.26396760      -0.50848236       1.04491703
C       -3.68558983       0.10889051       0.26895091
N       -3.54125184       1.02774097      -0.65899661
N       -2.18975142       1.30386345      -0.84461564
O       -4.91994778      -0.28055988       0.60371758
H        2.77881357      -1.63774688      -1.43137092
H        5.83205855       0.43171644       0.44999060
H        1.95403641       1.47492225       1.43633035
H       -5.46932221       0.24518408       0.00089013
19
Properties=species:S:1:pos:R:3 energy=-8.277797939672597 constraints="[\"7,6,2,1=40\"]" angle=40 pbc="F F F"
N        4.39830610      -0.51359168      -0.69156335
C        3.07871088      -0.71744218      -0.85384300
C        2.14708787      -0.13399079      -0.01118152
C        2.62002913       0.70056882       0.98984605
N        3.93792335       0.90854639       1.17062172
C        4.75795788       0.28757279       0.31725542
C        0.72172578      -0.33751354      -0.22965378
O        0.33734377      -1.44637583      -0.56485880
N       -0.05760205       0.63589630       0.09556588
C       -1.41749850       0.53530742      -0.05288429
S       -2.27074692      -0.51878884       1.05050591
C       -3.68409229       0.10752905       0.26648331
N       -3.52956205       1.03292108      -0.65335567
N       -2.17590108       1.30765684      -0.82469072
O       -4.92218952      -0.28195869       0.58709692
H        2.77259402      -1.36549247      -1.67539455
H        5.82430175       0.45285407       0.45493566
H        1.94501659       1.21067277       1.67695524
H       -5.46504377       0.24927900      -0.01682259
19
Properties=species:S:1:pos:R:3 energy=-8.238283200705872 constraints="[\"7,6,2,1=50\"]" angle=50 pbc="F F F"
N        4.38702825      -0.33050669      -0.79432706
C        3.06963917      -0.54389554      -0.96195976
C        2.14596133      -0.13801737      -0.01464503
C        2.61875857       0.53608885       1.09918835
N        3.93454594       0.75102986       1.28689957
C        4.74984664       0.30342201       0.32659660
C        0.72329616      -0.33772956      -0.23587038
O        0.33926128      -1.44571874      -0.57305200
N       -0.05327360       0.62325312       0.12851468
C       -1.41210811       0.53091290      -0.03116591
S       -2.27756401      -0.52672503       1.05865564
C       -3.68217543       0.10788872       0.26549861
N       -3.51686843       1.03689560      -0.64888393
N       -2.16094619       1.30817472      -0.80729667
O       -4.92417919      -0.27930408       0.57353374
H        2.75856875      -1.05562267      -1.87290264
H        5.81451489       0.47541729       0.46894278
H        1.94408146       0.90683610       1.87074618
H       -5.46015384       0.25626072      -0.03270740
19
Properties=species:S:1:pos:R:3 energy=-8.195503367789106 constraints="[\"7,6,2,1=60\"]" angle=60 pbc="F F F"
N        4.36958389      -0.13204353      -0.86395383
C        3.05470996      -0.35345659      -1.04050776
C        2.14482197      -0.14106503      -0.02076315
C        2.62344416       0.35238826       1.18021536
N        3.93682501       0.57294132       1.37769839
C        4.74134447       0.31634913       0.34088067
C        0.72444085      -0.34003587      -0.24122594
O        0.34068587      -1.44789285      -0.57792762
N       -0.04886019       0.60996583       0.15529444
C       -1.40681589       0.52572340      -0.01293845
S       -2.28323534      -0.53027156       1.06913398
C       -3.67992679       0.10974017       0.26623017
N       -3.50484083       1.03819587      -0.64696597
N       -2.14688309       1.30470720      -0.79567441
O       -4.92543908      -0.27326538       0.56519769
H        2.73485119      -0.71437673      -2.01808666
H        5.80409532       0.49400683       0.49041983
H        1.95425485       0.56958499       2.01260736
H       -5.45517947       0.26416519      -0.04486358
19
Properties=species:S:1:pos:R:3 energy=-8.154303972047257 constraints="[\"7,6,2,1=70\"]" angle=70 pbc="F F F"
N        4.34561693       0.07433218      -0.89903877
C        3.03273973      -0.15050208      -1.08590010
C        2.14361050      -0.14054903      -0.02736657
C        2.63656356       0.15349573       1.23032546
N        3.94798794       0.37540055       1.43836209
C        4.73416550       0.32212795       0.35764808
C        0.72529076      -0.34285000      -0.24394735
O        0.34235272      -1.45171393      -0.57722990
N       -0.04509694       0.60223622       0.16739743
C       -1.40264643       0.52256255      -0.00395043
S       -2.28469659      -0.52714586       1.07931421
C       -3.67725855       0.11213996       0.26858546
N       -3.49705615       1.03553746      -0.64878569
N       -2.13802821       1.29837115      -0.79420043
O       -4.92459560      -0.26683204       0.56507148
H        2.69831872      -0.34878551      -2.10417828
H        5.79537416       0.50203377       0.51523582
H        1.97961197       0.20623421       2.09828631
H       -5.45108238       0.26861743      -0.04953527
19
Properties=species:S:1:pos:R:3 energy=-8.120888936887868 constraints="[\"7,6,2,1=80\"]" angle=80 pbc="F F F"
N        4.30322104       0.29472257      -1.01956606
C        2.98860585       0.06548179      -1.18868247
C        2.14767387      -0.12082777      -0.10783446
C        2.68857233      -0.02757617       1.15962018
N        4.00193372       0.19749902       1.34985531
C        4.74069656       0.34641033       0.24455809
C        0.72932392      -0.34151321      -0.29160037
O        0.34858874      -1.45853548      -0.59837824
N       -0.03867696       0.61590181       0.09251923
C       -1.39909099       0.52152754      -0.04530797
S       -2.24782352      -0.50837695       1.08290911
C       -3.66362543       0.10031521       0.28909175
N       -3.51190342       1.00240945      -0.65423633
N       -2.15873253       1.27212667      -0.83700768
O       -4.90073443      -0.28099283       0.62305953
H        2.61400590       0.02509333      -2.21141337
H        5.80337180       0.52991973       0.38741915
H        2.06857244      -0.14119576       2.04855757
H       -5.44542880       0.23537651       0.00798894
19
Properties=species:S:1:pos:R:3 energy=-8.105573009479064 constraints="[\"7,6,2,1=90\"]" angle=90 pbc="F F F"
N        4.26214258       0.50678163      -0.86687311
C        2.94458090       0.29813334      -1.04279744
C        2.13869008      -0.11169317       0.00250343
C        2.72112037      -0.29434824       1.24031504
N        4.03643273      -0.09054046       1.43701253
C        4.73800671       0.30270115       0.36751922
C        0.72516103      -0.34987057      -0.18763750
O        0.35573842      -1.46695400      -0.50720839
N       -0.04770400       0.65358145       0.03306151
C       -1.40887583       0.54335198      -0.09235638
S       -2.24555712      -0.46172095       1.06858829
C       -3.67018171       0.12100412       0.27151087
N       -3.52993408       1.00131929      -0.69366409
N       -2.17947239       1.27313485      -0.89309276
O       -4.90282924      -0.25800330       0.62402709
H        2.53874344       0.46060952      -2.04126658
H        5.80260517       0.47039317       0.51541314
H        2.13282997      -0.61522627       2.09951865
H       -5.45470645       0.24161601       0.00155278
19
Properties=species:S:1:pos:R:3 energy=-8.122402706172316 constraints="[\"7,6,2,1=100\"]" angle=100 pbc="F F F"
N        4.18014791       0.74188892      -0.81154589
C        2.85484010       0.53938838      -0.93208404
C        2.13245595      -0.08612762       0.06757205
C        2.81559616      -0.52867677       1.18224109
N        4.13858985      -0.33182119       1.32365912
C        4.75078265       0.30030342       0.31541979
C        0.71968159      -0.35859369      -0.08361886
O        0.37355410      -1.48431982      -0.39919405
N       -0.05450959       0.66785288      -0.04855122
C       -1.41701039       0.54434124      -0.15431833
S       -2.24198635      -0.40804460       1.05988810
C       -3.67525244       0.13557226       0.25118340
N       -3.54595003       0.97194278      -0.75353761
N       -2.19799437       1.23695592      -0.97786231
O       -4.90364772      -0.22941125       0.63212575
H        2.37319849       0.88785498      -1.84589977
H        5.82126657       0.46396719       0.41857686
H        2.30253684      -1.05428419       1.98706925
H       -5.46251587       0.24113778      -0.00657801
19
Properties=species:S:1:pos:R:3 energy=-8.159385153756498 constraints="[\"7,6,2,1=110\"]" angle=110 pbc="F F F"
N        4.13105783       0.92888072      -0.72276489
C        2.80342772       0.72805860      -0.82077812
C        2.13116034      -0.07314723       0.08560599
C        2.87184194      -0.70363378       1.06569932
N        4.19760686      -0.51033782       1.18391115
C        4.75658528       0.30412197       0.28136736
C        0.71746930      -0.35379546      -0.05685075
O        0.37905783      -1.48371039      -0.36669135
N       -0.05888298       0.67241603      -0.06764499
C       -1.42155442       0.54431091      -0.16852882
S       -2.24339880      -0.39429645       1.05883982
C       -3.67884241       0.13792131       0.24652103
N       -3.55243900       0.96244220      -0.76826589
N       -2.20523673       1.22635794      -0.99833664
O       -4.90606231      -0.22403660       0.63407332
H        2.27894399       1.22290521      -1.63860995
H        5.82887279       0.46638158       0.36642302
H        2.40300912      -1.37930526       1.78057808
H       -5.46672757       0.23834644      -0.00900658
19
Properties=species:S:1:pos:R:3 energy=-8.203400111386928 constraints="[\"7,6,2,1=120\"]" angle=120 pbc="F F F"
N        4.09026308       1.09526909      -0.70426808
C        2.76229468       0.88653877      -0.77937195
C        2.13862565      -0.05957574       0.01718451
C        2.93092689      -0.82306654       0.85284546
N        4.25781603      -0.62369241       0.94667545
C        4.76655993       0.33324885       0.16242252
C        0.72222952      -0.34567534      -0.10764449
O        0.38392282      -1.48115599      -0.39794020
N       -0.06166008       0.67559239      -0.11548429
C       -1.42502873       0.53813051      -0.19284277
S       -2.22129347      -0.39490172       1.05549969
C       -3.67288619       0.12285112       0.26278199
N       -3.56784535       0.93999951      -0.76037565
N       -2.22612918       1.20950771      -1.01468170
O       -4.89151240      -0.24284076       0.67328033
H        2.19875028       1.49332268      -1.48878240
H        5.83923549       0.50154599       0.22880241
H        2.50338323      -1.61256523       1.47049221
H       -5.46527426       0.21140727       0.03598608
19
Properties=species:S:1:pos:R:3 energy=-8.247197377946435 constraints="[\"7,6,2,1=130\"]" angle=130 pbc="F F F"
N        4.06475998       1.22898533      -0.56178608
C        2.73787941       1.01629412      -0.64454835
C        2.14062526      -0.05684809      -0.00143062
C        2.96060072      -0.93264621       0.68591033
N        4.28687090      -0.73113063       0.78507740
C        4.76799413       0.34663313       0.15610371
C        0.72150563      -0.33826574      -0.13495068
O        0.37945030      -1.47353304      -0.42324574
N       -0.06626954       0.68060438      -0.11935584
C       -1.42959215       0.54009155      -0.19226200
S       -2.21832442      -0.40426769       1.05225342
C       -3.67447776       0.11666004       0.27003721
N       -3.57566296       0.94228681      -0.74693827
N       -2.23565402       1.21669747      -1.00490705
O       -4.89053374      -0.25495761       0.68285042
H        2.15500680       1.72332833      -1.23574973
H        5.83987627       0.51760927       0.22820550
H        2.55656829      -1.81667332       1.17889972
H       -5.46802774       0.20325439       0.05180463
19
Properties=species:S:1:pos:R:3 energy=-8.286015505486196 constraints="[\"7,6,2,1=140\"]" angle=140 pbc="F F F"
N        4.04797356       1.31835066      -0.29636574
C        2.72310002       1.10906695      -0.41261900
C        2.13767697      -0.06601747       0.03660594
C        2.96994809      -1.03476793       0.56942607
N        4.29442552      -0.83819162       0.69896815
C        4.76259654       0.33463737       0.25973094
C        0.71618619      -0.33330647      -0.12823170
O        0.36745262      -1.46294337      -0.43174546
N       -0.07120111       0.68545622      -0.08011325
C       -1.43407138       0.54920779      -0.16807027
S       -2.23534249      -0.41817191       1.05033661
C       -3.68363498       0.12209602       0.26662244
N       -3.57435215       0.96822575      -0.73229863
N       -2.23159537       1.24464056      -0.97320937
O       -4.90400249      -0.25498737       0.66138544
H        2.13386538       1.90229057      -0.87391025
H        5.83290560       0.50232688       0.35812553
H        2.57835532      -1.99250474       0.91194399
H       -5.47506453       0.21752894       0.03506291
19
Properties=species:S:1:pos:R:3 energy=-8.31683430251096 constraints="[\"7,6,2,1=150\"]" angle=150 pbc="F F F"
N        4.02606532       1.38880466      -0.11506203
C        2.70303404       1.17832927      -0.24824019
C        2.14056233      -0.06503151       0.00945681
C        2.99621362      -1.09020522       0.37742410
N        4.31934485      -0.89340139       0.52033079
C        4.76354856       0.34152465       0.26702236
C        0.71581201      -0.32513215      -0.16475255
O        0.36040269      -1.45274583      -0.46928113
N       -0.07493461       0.68917612      -0.08038272
C       -1.43783299       0.55090602      -0.16479879
S       -2.23182555      -0.43128540       1.04632954
C       -3.68454570       0.11484020       0.27493857
N       -3.58123688       0.97245108      -0.71481447
N       -2.24007186       1.25417496      -0.95836971
O       -4.90248663      -0.26902539       0.67068417
H        2.09811365       2.02747518      -0.56787781
H        5.83253011       0.50976902       0.37808458
H        2.62652654      -2.09653362       0.57391761
H       -5.47713572       0.20944347       0.05222122
19
Properties=species:S:1:pos:R:3 energy=-8.338199592666946 constraints="[\"7,6,2,1=160\"]" angle=160 pbc="F F F"
N        4.00524283       1.42583015       0.07694477
C        2.68382838       1.21647232      -0.07240442
C        2.14317780      -0.06269997      -0.01600880
C        3.02124510      -1.11767530       0.17838626
N        4.34329375      -0.92243253       0.33333635
C        4.76468475       0.34424351       0.27481147
C        0.71535267      -0.31643868      -0.19726137
O        0.35379827      -1.44196296      -0.50319605
N       -0.07823966       0.69259480      -0.07844845
C       -1.44108899       0.55249676      -0.16079686
S       -2.22930056      -0.44285050       1.04316701
C       -3.68546853       0.10814943       0.28177973
N       -3.58689663       0.97586725      -0.69963817
N       -2.24702971       1.26248864      -0.94457860
O       -4.90146176      -0.28186634       0.67752524
H        2.06366668       2.09748424      -0.24050629
H        5.83255414       0.51133275       0.39768737
H        2.67284690      -2.14954037       0.22108669
H       -5.47891887       0.20170814       0.06569357
19
Properties=species:S:1:pos:R:3 energy=-8.349990557409788 constraints="[\"7,6,2,1=170\"]" angle=170 pbc="F F F"
N        3.98615346       1.42804202       0.27331752
C        2.66585218       1.22180762       0.11091643
C        2.14527856      -0.05916384      -0.03758459
C        3.04391284      -1.11577818      -0.02406507
N        4.36540434      -0.92347209       0.13932802
C        4.76597980       0.34320654       0.27976796
C        0.71503702      -0.30804611      -0.22273754
O        0.34874950      -1.43183740      -0.52996897
N       -0.08069851       0.69553296      -0.07359013
C       -1.44340570       0.55397461      -0.15578123
S       -2.22799952      -0.45198735       1.04151980
C       -3.68624586       0.10254822       0.28667578
N       -3.59062870       0.97828332      -0.68791155
N       -2.25161143       1.26906574      -0.93256776
O       -4.90100324      -0.29257170       0.68116966
H        2.03092393       2.10819914       0.10159179
H        5.83316095       0.50773947       0.41173597
H        2.71472234      -2.14826957      -0.14021616
H       -5.48016891       0.19489063       0.07406372
19
Properties=species:S:1:pos:R:3 energy=-8.352818364421111 constraints="[\"7,6,2,1=180\"]" angle=180 pbc="F F F"
N        3.96999667       1.39505416       0.46724845
C        2.65021763       1.19340775       0.29555206
C        2.14671713      -0.05480201      -0.05535778
C        3.06214378      -1.08346318      -0.22548764
N        4.38363408      -0.89485266      -0.05762046
C        4.76701567       0.33928126       0.28039520
C        0.71522804      -0.30045050      -0.24140343
O        0.34610602      -1.42309260      -0.54966101
N       -0.08174767       0.69779048      -0.06485004
C       -1.44420692       0.55541038      -0.14898656
S       -2.22759524      -0.45914737       1.04161900
C       -3.68639779       0.09803464       0.28976520
N       -3.59173317       0.98008740      -0.67922398
N       -2.25305046       1.27430150      -0.92158026
O       -4.90072990      -0.30123340       0.68139246
H        2.00180133       2.05675251       0.44719373
H        5.83397516       0.50032619       0.41832337
H        2.74781802      -2.09006551      -0.50084744
H       -5.48037881       0.18919622       0.07714929
19
Properties=species:S:1:pos:R:3 energy=-8.3471559475525 constraints="[\"7,6,2,1=190\"]" angle=190 pbc="F F F"
N        3.95813072       1.32761871       0.65184394
C        2.63835667       1.13200211       0.47357414
C        2.14747932      -0.04939427      -0.07146500
C        3.07399048      -1.02091575      -0.42076745
N        4.39589425      -0.83679940      -0.25093936
C        4.76736486       0.33270421       0.27709845
C        0.71620734      -0.29304191      -0.25648635
O        0.34618855      -1.41511190      -0.56564645
N       -0.08108110       0.69940679      -0.05145327
C       -1.44316892       0.55698449      -0.13950241
S       -2.22742687      -0.46571949       1.04325561
C       -3.68544441       0.09402387       0.29171762
N       -3.58997393       0.98186065      -0.67192607
N       -2.25118507       1.27918446      -0.90984050
O       -4.90005624      -0.30902481       0.67858053
H        1.97901578       1.94402171       0.78121332
H        5.83448223       0.48932821       0.41884364
H        2.76828684      -1.97523489      -0.84940104
H       -5.47910924       0.18412511       0.07598546
19
Properties=species:S:1:pos:R:3 energy=-8.332856637444918 constraints="[\"7,6,2,1=200\"]" angle=200 pbc="F F F"
N        3.95162400       1.22774478       0.82059096
C        2.63141985       1.04011178       0.63719196
C        2.14764729      -0.04208727      -0.08816521
C        3.07872214      -0.92980875      -0.60492548
N        4.40133045      -0.75167519      -0.43398562
C        4.76709589       0.32303506       0.27062407
C        0.71794379      -0.28446944      -0.27165536
O        0.34867073      -1.40638147      -0.58184047
N       -0.07894864       0.70051568      -0.03316272
C       -1.44052771       0.55878518      -0.12675600
S       -2.22714369      -0.47300602       1.04612861
C       -3.68335242       0.08980744       0.29327880
N       -3.58577964       0.98391951      -0.66437985
N       -2.24658254       1.28447434      -0.89581542
O       -4.89874859      -0.31725526       0.67341865
H        1.96486958       1.77520033       1.08895499
H        5.83466998       0.47383160       0.41522123
H        2.77495466      -1.80775614      -1.17493134
H       -5.47639314       0.17892131       0.07195959
19
Properties=species:S:1:pos:R:3 energy=-8.309557978465275 constraints="[\"7,6,2,1=210\"]" angle=210 pbc="F F F"
N        3.95092047       1.09865919       0.96787363
C        2.62988631       0.92105241       0.78061445
C        2.14729944      -0.03244469      -0.10596853
C        3.07687263      -0.81263910      -0.77379407
N        4.40044041      -0.64227774      -0.60224176
C        4.76666698       0.31037419       0.26064347
C        0.72009481      -0.27405459      -0.28838805
O        0.35277905      -1.39603510      -0.59986076
N       -0.07590307       0.70084992      -0.01061865
C       -1.43685500       0.56054912      -0.11095985
S       -2.22694942      -0.48121352       1.05024260
C       -3.68053217       0.08522892       0.29490837
N       -3.57984752       0.98610342      -0.65613161
N       -2.24002563       1.28995194      -0.87945615
O       -4.89708988      -0.32603597       0.66671911
H        1.96041082       1.55725963       1.36006874
H        5.83497100       0.45378849       0.40734525
H        2.76932720      -1.59343081      -1.46934605
H       -5.47268107       0.17349088       0.06606688
19
Properties=species:S:1:pos:R:3 energy=-8.277547322827193 constraints="[\"7,6,2,1=220\"]" angle=220 pbc="F F F"
N        3.95609190       0.94463309       1.08908920
C        2.63386335       0.77789942       0.90034426
C        2.14649002      -0.02144430      -0.12337957
C        3.06927350      -0.67187977      -0.92385014
N        4.39403123      -0.51002092      -0.75329638
C        4.76650659       0.29650796       0.24573221
C        0.72221777      -0.26285325      -0.30526214
O        0.35757480      -1.38501824      -0.61810164
N       -0.07238181       0.69944558       0.01503530
C       -1.43264342       0.56156539      -0.09292897
S       -2.22755621      -0.48948662       1.05600359
C       -3.67757717       0.08088702       0.29662837
N       -3.57258216       0.98798563      -0.64808659
N       -2.23185857       1.29444693      -0.86216782
O       -4.89575222      -0.33392050       0.65909176
H        1.96595612       1.29626353       1.58873715
H        5.83579489       0.43187911       0.39290547
H        2.75353590      -1.33752453      -1.72709617
H       -5.46853913       0.16887221       0.05848496
19
Properties=species:S:1:pos:R:3 energy=-8.238408373071655 constraints="[\"7,6,2,1=230\"]" angle=230 pbc="F F F"
N        3.96736396       0.77065163       1.18080685
C        2.64368401       0.61310711       0.99448070
C        2.14528844      -0.01169571      -0.13783293
C        3.05607721      -0.50963652      -1.05140210
N        4.38215151      -0.35454860      -0.88504122
C        4.76670742       0.28492599       0.22467330
C        0.72396453      -0.25367870      -0.31908577
O        0.36210230      -1.37611476      -0.63284990
N       -0.06856670       0.69508254       0.04185191
C       -1.42815665       0.56096337      -0.07420038
S       -2.22968199      -0.49626330       1.06385037
C       -3.67497523       0.07789535       0.29816356
N       -3.56409906       0.98906862      -0.64203253
N       -2.22207072       1.29634138      -0.84647484
O       -4.89538777      -0.33849659       0.65116108
H        1.98224249       0.99661597       1.77166675
H        5.83715536       0.41357430       0.36942793
H        2.72831628      -1.04381572      -1.94307723
H       -5.46441668       0.16682155       0.04910380
19
Properties=species:S:1:pos:R:3 energy=-8.195291118994954 constraints="[\"7,6,2,1=240\"]" angle=240 pbc="F F F"
N        3.98526361       0.58188286       1.24121014
C        2.66015219       0.42850205       1.06201732
C        2.14387863      -0.00719821      -0.14673609
C        3.03646011      -0.32797560      -1.15155851
N        4.36371079      -0.17466983      -0.99340454
C        4.76688348       0.27987225       0.19823564
C        0.72520940      -0.25048237      -0.32654520
O        0.36535239      -1.37323293      -0.64008586
N       -0.06444386       0.68757981       0.06503213
C       -1.42352622       0.55841102      -0.05818862
S       -2.23291789      -0.49943467       1.07320023
C       -3.67277609       0.07754122       0.29927281
N       -3.55494223       0.98897558      -0.63990150
N       -2.21127794       1.29439763      -0.83612444
O       -4.89588023      -0.33738472       0.64459746
H        2.01094843       0.66152495       1.90623082
H        5.83845371       0.40574247       0.33700630
H        2.69238177      -0.71521920      -2.11038173
H       -5.46054552       0.16891423       0.03926408
19
Properties=species:S:1:pos:R:3 energy=-8.153118644166067 constraints="[\"7,6,2,1=250\"]" angle=250 pbc="F F F"
N        4.02430724       0.44183344       1.18584149
C        2.69789631       0.27091323       1.03518493
C        2.14339346       0.01526496      -0.20634279
C        2.99785792      -0.10449984      -1.28457239
N        4.32583953       0.06827565      -1.15539482
C        4.76777093       0.33933512       0.07792992
C        0.72697662      -0.24313429      -0.36405263
O        0.37273139      -1.37211190      -0.65981461
N       -0.06232290       0.69210647       0.03264487
C       -1.42169092       0.55455308      -0.07504906
S       -2.21385105      -0.49157893       1.07899434
C       -3.66432113       0.06514411       0.30997544
N       -3.56077242       0.96282771      -0.64405084
N       -2.22088588       1.27328610      -0.85741888
O       -4.88160247      -0.35190183       0.67287112
H        2.07801161       0.34266413       1.92896937
H        5.84028939       0.47966631       0.19357926
H        2.62201216      -0.34320543      -2.27919951
H       -5.45493675       0.14165549       0.06516617
19
Properties=species:S:1:pos:R:3 energy=-8.119608913390826 constraints="[\"7,6,2,1=260\"]" angle=260 pbc="F F F"
N        4.06198711       0.23381703       1.18604558
C        2.73706379       0.04188079       1.05086397
C        2.14396815      -0.01340912      -0.19669533
C        2.95463187       0.10895128      -1.30725041
N        4.28101023       0.30419473      -1.19333437