19
Properties=species:S:1:pos:R:3 energy=-8.273974740239467 constraints="[\"10,9,8,6=0\"]" angle=0 pbc="F F F"
N        4.25718052       1.02562569       1.14361215
C        3.13312902       0.28991706       1.08045622
C        2.11093259       0.59550062       0.19168200
C        2.29874064       1.69313162      -0.64072498
N        3.41944515       2.43728919      -0.58690239
C        4.34041813       2.06213160       0.30416170
C        0.89352304      -0.21657626       0.14416482
O        0.82879763      -1.22447367       0.82952409
N       -0.00641820       0.12122028      -0.71451875
C       -1.34627627       0.26382655      -0.42666598
S       -1.94098726      -0.01776083       1.20031166
C       -3.47240965       0.44190122       0.53549888
N       -3.52225607       0.78664753      -0.72996009
N       -2.25612112       0.68765250      -1.29895117
O       -4.59485709       0.48185739       1.26032758
H        3.06248222      -0.55625712       1.76433591
H        5.24807617       2.65981698       0.35200167
H        1.55002795       2.00244006      -1.37009525
H       -5.25033399       0.77228361       0.60635565
19
Properties=species:S:1:pos:R:3 energy=-8.290335584788712 constraints="[\"10,9,8,6=10\"]" angle=10 pbc="F F F"
N        4.28762228       0.53182218       1.26979727
C        3.11401564      -0.10386987       1.10439595
C        2.12102370       0.40274014       0.27645307
C        2.39142559       1.59538241      -0.38478249
N        3.56224196       2.24118455      -0.22730541
C        4.44934918       1.67276667       0.59302438
C        0.84848271      -0.30343248       0.11583932
O        0.70799278      -1.39437005       0.64506837
N       -0.02093287       0.22352640      -0.67685943
C       -1.37051867       0.30704865      -0.41155820
S       -1.98338094      -0.08401499       1.18595628
C       -3.51440212       0.38110685       0.52386457
N       -3.55159515       0.80640451      -0.71734282
N       -2.27423638       0.77299650      -1.26877946
O       -4.64899949       0.35041812       1.23003597
H        2.97927303      -1.03485259       1.65558425
H        5.39727096       2.19010255       0.72405001
H        1.67067355       2.06235428      -1.05605049
H       -5.30027398       0.66691938       0.58402124
19
Properties=species:S:1:pos:R:3 energy=-8.307746516641336 constraints="[\"10,9,8,6=20\"]" angle=20 pbc="F F F"
N        4.30660743       0.05240289       1.25968630
C        3.09085217      -0.47275580       1.02512374
C        2.12640833       0.21639551       0.30186914
C        2.47065761       1.47428678      -0.17957092
N        3.68417276       2.01090815       0.04875112
C        4.53876871       1.26877330       0.75723396
C        0.80707510      -0.37219769       0.06350001
O        0.59668397      -1.51708451       0.43111612
N       -0.03310633       0.32562396      -0.62178113
C       -1.39103394       0.35186855      -0.39108998
S       -2.02399952      -0.15073626       1.16667611
C       -3.55248717       0.32127654       0.50321127
N       -3.57518360       0.82857791      -0.70729695
N       -2.28659677       0.86107146      -1.23218837
O       -4.69970585       0.21917552       1.18179551
H        2.89863238      -1.46492910       1.43418954
H        5.52095245       1.69714989       0.94476731
H        1.77668348       2.08295858      -0.75922795
H       -5.34526763       0.56288410       0.54401096
19
Properties=species:S:1:pos:R:3 energy=-8.324641792769706 constraints="[\"10,9,8,6=30\"]" angle=30 pbc="F F F"
N        4.31961979      -0.37688145       1.11866007
C        3.06857914      -0.79120267       0.85003965
C        2.12977437       0.05265239       0.27146523
C        2.53749280       1.34756326      -0.02760627
N        3.78680282       1.77435717       0.23666298
C        4.61244216       0.88653441       0.79627441
C        0.77138913      -0.41766808      -0.00709249
O        0.49912380      -1.58972229       0.19920503
N       -0.04309321       0.42421401      -0.54634371
C       -1.40747642       0.39760492      -0.36282178
S       -2.06361669      -0.21788990       1.14332034
C       -3.58656362       0.26373199       0.47344811
N       -3.59204533       0.85397817      -0.69928009
N       -2.29216730       0.95123395      -1.18716608
O       -4.74707148       0.09073712       1.11406899
H        2.82688905      -1.82147885       1.11234674
H        5.62331669       1.22559560       1.01198420
H        1.86733570       2.07505577      -0.48551090
H       -5.38480995       0.46311079       0.48456967
19
Properties=species:S:1:pos:R:3 energy=-8.339250768425677 constraints="[\"10,9,8,6=40\"]" angle=40 pbc="F F F"
N        4.33225498      -0.71992166       0.86074742
C        3.05220575      -1.03426563       0.59311175
C        2.13363172      -0.07243609       0.19395810
C        2.59258361       1.23428557       0.07460720
N        3.87133613       1.56174863       0.33992051
C        4.67403503       0.56419473       0.71892985
C        0.74328914      -0.43579175      -0.08722589
O        0.41946078      -1.61192241      -0.03713324
N       -0.05118901       0.51464668      -0.44610954
C       -1.41969885       0.44280293      -0.32308382
S       -2.10451766      -0.28689440       1.11665957
C       -3.61722112       0.20980520       0.43396045
N       -3.60078031       0.88423434      -0.69263396
N       -2.28921147       1.04315478      -1.13059843
O       -4.79231716      -0.03199116       1.02377153
H        2.77061442      -2.08122562       0.70828610
H        5.70849403       0.82260884       0.93451673
H        1.94128109       2.05127796      -0.23574836
H       -5.41884902       0.37165651       0.40235740
19
Properties=species:S:1:pos:R:3 energy=-8.349854772604298 constraints="[\"10,9,8,6=50\"]" angle=50 pbc="F F F"
N        4.34864283      -0.94205140       0.51113472
C        3.04581569      -1.17933315       0.27586514
C        2.13970327      -0.14485787       0.08336699
C        2.63532795       1.15274799       0.13744954
N        3.93717753       1.40343219       0.37249826
C        4.72533329       0.33963858       0.54640988
C        0.72444805      -0.42551926      -0.16675341
O        0.36203353      -1.58741127      -0.26480045
N       -0.05758881       0.58898269      -0.31752859
C       -1.42735735       0.48412704      -0.26816471
S       -2.14909700      -0.35995361       1.08684259
C       -3.64458259       0.16170220       0.38428855
N       -3.59909797       0.92156416      -0.68602010
N       -2.27524531       1.13540999      -1.05886226
O       -4.83612433      -0.14365565       0.90799309
H        2.73577650      -2.22418117       0.24675634
H        5.77829706       0.53582096       0.73651837
H        1.99595354       2.02380058      -0.00548010
H       -5.44642443       0.29567120       0.29468708
19
Properties=species:S:1:pos:R:3 energy=-8.355232558397674 constraints="[\"10,9,8,6=60\"]" angle=60 pbc="F F F"
N        4.37003816      -1.01506695       0.10830120
C        3.05146405      -1.20947674      -0.07234268
C        2.14833715      -0.15513401      -0.04176019
C        2.66346609       1.11705237       0.17835737
N        3.98122733       1.32480158       0.36089938
C        4.76505449       0.24469393       0.31526955
C        0.71609049      -0.38949950      -0.23686631
O        0.33088070      -1.52363353      -0.47479746
N       -0.06217337       0.63620199      -0.16219066
C       -1.42976729       0.51610478      -0.19669740
S       -2.19807994      -0.43853783       1.05305617
C       -3.66738482       0.12272671       0.32541189
N       -3.58414653       0.96759140      -0.67706663
N       -2.24778216       1.22410665      -0.96970086
O       -4.87712182      -0.23580397       0.76739171
H        2.72645757      -2.23635914      -0.24133032
H        5.83078543       0.40617986       0.46190479
H        2.02756176       2.00150435       0.21453150
H       -5.46488778       0.24502479       0.16328152
19
Properties=species:S:1:pos:R:3 energy=-8.355105481235022 constraints="[\"10,9,8,6=70\"]" angle=70 pbc="F F F"
N        4.39436372      -0.92521169      -0.29735868
C        3.06854024      -1.11793998      -0.41643155
C        2.15835564      -0.10094007      -0.16071068
C        2.67362665       1.13261214       0.22001270
N        3.99861397       1.33828917       0.34309078
C        4.78906598       0.29557737       0.07651231
C        0.71863427      -0.33294968      -0.29323115
O        0.32868244      -1.42880692      -0.66548355
N       -0.06447435       0.64578983       0.00899283
C       -1.42624535       0.53249586      -0.11249190
S       -2.24937318      -0.52129832       1.01405762
C       -3.68312257       0.09652191       0.26098525
N       -3.55399394       1.02159168      -0.66305960
N       -2.20589289       1.30255033      -0.86531054
O       -4.91172288      -0.29860825       0.60999716
H        2.74367981      -2.11299562      -0.72138757
H        5.86063157       0.45556403       0.17405264
H        2.03207412       1.98673055       0.43637491
H       -5.47067138       0.22924373       0.01790653
19
Properties=species:S:1:pos:R:3 energy=-8.3503200872684 constraints="[\"10,9,8,6=80\"]" angle=80 pbc="F F F"
N        3.53166704      -2.26258760       1.87209257
C        2.49282727      -2.00793643       1.05650549
C        1.42698783      -1.21475166       1.45997134
C        1.47783154      -0.68660108       2.74461424
N        2.51183593      -0.93413346       3.57084648
C        3.48532857      -1.71034758       3.08816260
C        0.30445353      -0.95209707       0.55732256
O        0.32690707      -1.42512999      -0.56849485
N       -0.67859863      -0.26269811       1.02577558
C       -1.67324440       0.18632206       0.19676254
S       -2.91410427      -0.95960398      -0.24825474
C       -3.64963083       0.41323363      -1.00968269
N       -3.06799902       1.58461469      -0.88190934
N       -1.90017526       1.45313026      -0.13626141
O       -4.80124811       0.33578713      -1.68434975
H        2.52792213      -2.45695230       0.06362252
H        4.32359319      -1.91391598       3.75091116
H        0.68651030      -0.05064831       3.14119755
H       -4.93169028       1.25413123      -1.96944365
19
Properties=species:S:1:pos:R:3 energy=-8.34264157896918 constraints="[\"10,9,8,6=90\"]" angle=90 pbc="F F F"
N        3.67387464      -1.84128671       1.93512914
C        2.63686733      -1.65663112       1.09855839
C        1.45569488      -1.06259071       1.52241728
C        1.38766767      -0.65861378       2.85044318
N        2.41842260      -0.83788359       3.69811241
C        3.50853219      -1.42059553       3.19277741
C        0.33779384      -0.87298628       0.59627271
O        0.45976398      -1.23614110      -0.56347894
N       -0.75454927      -0.39186447       1.08074193
C       -1.70594899       0.12420909       0.24208869
S       -2.91909845      -0.98285245      -0.34809154
C       -3.61671203       0.44414896      -1.04324729
N       -3.04289816       1.60153207      -0.80193609
N       -1.91372727       1.41259227      -0.01059510
O       -4.73258051       0.41909827      -1.77915574
H        2.76869214      -1.99841372       0.07168637
H        4.34485044      -1.56813826       3.87260606
H        0.50069691      -0.18012326       3.26542571
H       -4.84869526       1.35597752      -2.00381806
19
Properties=species:S:1:pos:R:3 energy=-8.334126864843768 constraints="[\"10,9,8,6=100\"]" angle=100 pbc="F F F"
N        3.72971529      -1.41670350       2.12992821
C        2.72518697      -1.29926626       1.24301893
C        1.45028405      -0.91244784       1.63347977
C        1.25204540      -0.64367740       2.98238274
N        2.24887423      -0.75761824       3.88044079
C        3.43679357      -1.13844234       3.40382596
C        0.37012760      -0.79288086       0.65269553
O        0.60285694      -1.03642681      -0.52127613
N       -0.80739331      -0.52514072       1.09945064
C       -1.72647972       0.05746839       0.26996301
S       -2.91639681      -0.99904526      -0.44394330
C       -3.58580119       0.47735052      -1.05948478
N       -3.01893696       1.61192768      -0.71527188
N       -1.91979851       1.36166358       0.10085260
O       -4.67335149       0.50980388      -1.83630543
H        2.96074395      -1.52498640       0.20272161
H        4.24639262      -1.23225383       4.12432135
H        0.28463872      -0.32954237       3.37390772
H       -4.77909143       1.46082514      -1.99799479
19
Properties=species:S:1:pos:R:3 energy=-8.326246175962426 constraints="[\"10,9,8,6=110\"]" angle=110 pbc="F F F"
N        4.41696558       0.45234854      -1.17328404
C        3.14870083       0.01408000      -1.26850220
C        2.16880724       0.41984269      -0.37273291
C        2.54862665       1.30637791       0.62749547
N        3.81460026       1.75255601       0.73425352
C        4.68196803       1.30039771      -0.17495129
C        0.79487154      -0.07073924      -0.49220928
O        0.51601075      -0.84974877      -1.39046169
N       -0.03522214       0.25941471       0.43438993
C       -1.36237310       0.38315353       0.12819665
S       -2.42834523      -0.83228992       0.78074873
C       -3.67406667       0.15250410       0.08412099
N       -3.32726031       1.27481911      -0.50500681
N       -1.94447893       1.42441058      -0.45831650
O       -4.97072301      -0.16535798       0.15346300
H        2.92850313      -0.67737610      -2.08216822
H        5.70645581       1.65718239      -0.09435900
H        1.84210325       1.67976970       1.36858191
H       -5.38645580       0.57306212      -0.31955483
19
Properties=species:S:1:pos:R:3 energy=-8.319356253567634 constraints="[\"10,9,8,6=120\"]" angle=120 pbc="F F F"
N        4.40330318       0.93529288      -1.04288322
C        3.17464394       0.41849475      -1.22490507
C        2.16310858       0.59930844      -0.29156004
C        2.46744599       1.34504392       0.84048187
N        3.69303992       1.86764378       1.03528498
C        4.59637859       1.63418298       0.07978249
C        0.83360866       0.02625348      -0.50712428
O        0.62115089      -0.62615546      -1.51728167
N       -0.02095858       0.13103247       0.44922613
C       -1.33896151       0.32721272       0.14313821
S       -2.45399263      -0.88926850       0.70449275
C       -3.65727681       0.18635748       0.07047243
N       -3.26472194       1.33214533      -0.43914620
N       -1.87784671       1.42657895      -0.37493802
O       -4.96509763      -0.08764258       0.11008781
H        3.01281287      -0.15162511      -2.14001167
H        5.58858913       2.05376627       0.23089328
H        1.73094777       1.54018365       1.61974188
H       -5.34990499       0.69627473      -0.31337693
19
Properties=species:S:1:pos:R:3 energy=-8.312859807783537 constraints="[\"10,9,8,6=130\"]" angle=130 pbc="F F F"
N        4.36965229       1.38512175      -0.76006809
C        3.19454445       0.80461990      -1.06359121
C        2.14932948       0.75635160      -0.15142905
C        2.36104799       1.34112985       1.09078220
N        3.53218170       1.92505551       1.40790014
C        4.47486190       1.91593322       0.46193381
C        0.87972023       0.11697431      -0.50017210
O        0.74871816      -0.39057326      -1.60294315
N       -0.00186717      -0.00370015       0.42917376
C       -1.31012653       0.26881771       0.14119965
S       -2.47190433      -0.94053474       0.61616721
C       -3.63284353       0.22561405       0.06949326
N       -3.19592622       1.38931417      -0.35613087
N       -1.80637996       1.42398449      -0.29140927
O       -4.95030649       0.00066133       0.09393249
H        3.10411505       0.37120061      -2.05988904
H        5.42348699       2.38626035       0.71147311
H        1.59182103       1.35332437       1.86268851
H       -5.30478646       0.82864383      -0.26772291
19
Properties=species:S:1:pos:R:3 energy=-8.305795460418167 constraints="[\"10,9,8,6=140\"]" angle=140 pbc="F F F"
N        4.30467405       1.76184982      -0.33259942
C        3.20399083       1.13741242      -0.78945042
C        2.12347064       0.86753422       0.03898686
C        2.21825285       1.27774416       1.36272117
N        3.31391606       1.90298524       1.83346468
C        4.29957258       2.11259393       0.95701044
C        0.93698952       0.18301378      -0.47685448
O        0.90703699      -0.16442848      -1.64685427
N        0.02626194      -0.15350007       0.36729656
C       -1.26986406       0.20516172       0.12293633
S       -2.48095247      -0.98848846       0.50546122
C       -3.59342883       0.27309569       0.08485246
N       -3.10821155       1.44944468      -0.24169337
N       -1.71801555       1.41581214      -0.19584310
O       -4.91939047       0.10574032       0.10899413
H        3.20335037       0.85038846      -1.84123091
H        5.18770099       2.61762474       1.33056025
H        1.41326633       1.11156828       2.07827374
H       -5.23996977       0.97846926      -0.16967404
19
Properties=species:S:1:pos:R:3 energy=-8.297912322512277 constraints="[\"10,9,8,6=150\"]" angle=150 pbc="F F F"
N        4.16101102       2.03366502       0.24939593
C        3.19965342       1.36181229      -0.40982207
C        2.06816596       0.88645962       0.23843892
C        1.95894856       1.14407677       1.59900497
N        2.91407594       1.81340853       2.27186137
C        3.96475305       2.22477822       1.55753079
C        1.03814484       0.15049838      -0.49698874
O        1.17000200      -0.02945097      -1.69708982
N        0.09050666      -0.39855344       0.17819117
C       -1.17626789       0.10109443       0.06934039
S       -2.47291591      -1.04299364       0.28637450
C       -3.48554328       0.35791908       0.15210490
N       -2.91114392       1.53154769       0.01584072
N       -1.52862860       1.38051353      -0.01137678
O       -4.81943644       0.29417359       0.20873132
H        3.35514261       1.20385694      -1.47726653
H        4.73981838       2.76706252       2.09471799
H        1.09943576       0.81418761       2.18204843
H       -5.07310769       1.22563243       0.10772554
19
Properties=species:S:1:pos:R:3 energy=-8.289952176390045 constraints="[\"10,9,8,6=160\"]" angle=160 pbc="F F F"
N        4.01389788       2.06182832       0.94037160
C        3.18635252       1.43877415       0.08179661
C        2.01256277       0.83372379       0.50974146
C        1.71680026       0.90904724       1.86506321
N        2.53738867       1.52580204       2.73630633
C        3.64234312       2.07324634       2.22405889
C        1.13391905       0.15038484      -0.44330557
O        1.44453933       0.11384434      -1.62316896
N        0.13180310      -0.51296776       0.01851782
C       -1.10959237       0.05810035       0.02208741
S       -2.45577408      -1.04244928       0.14023812
C       -3.39989523       0.40932210       0.22090317
N       -2.77101895       1.56258756       0.21007392
N       -1.39973173       1.35229773       0.11277908
O       -4.73284034       0.40072962       0.31845080
H        3.48591160       1.42672624      -0.96636625
H        4.30899448       2.57483433       2.92216657
H        0.81319309       0.46757667       2.28438136
H       -4.94242694       1.34810383       0.34688648
19
Properties=species:S:1:pos:R:3 energy=-8.27876965819044 constraints="[\"10,9,8,6=170\"]" angle=170 pbc="F F F"
N        3.85901586       1.89531761       1.62725008
C        3.14332982       1.38882613       0.60668987
C        1.95357321       0.70531393       0.81840773
C        1.52280507       0.57449704       2.13280534
N        2.23077350       1.07169110       3.16425017
C        3.36112966       1.71098712       2.85357901
C        1.20105308       0.15020974      -0.31115749
O        1.66323461       0.24251720      -1.43712423
N        0.15000345      -0.55218606      -0.06299414
C       -1.07644637       0.04892515      -0.00212099
S       -2.44561478      -1.02724562       0.06886108
C       -3.35538995       0.43577575       0.26045755
N       -2.70073261       1.57322697       0.31285234
N       -1.33643060       1.34017501       0.17780467
O       -4.68635068       0.44936349       0.38103701
H        3.54664942       1.53662617      -0.39531650
H        3.93719739       2.11745419       3.68201049
H        0.59949182       0.05608822       2.38912827
H       -4.87407700       1.39691592       0.47708680
19
Properties=species:S:1:pos:R:3 energy=-8.263534276477879 constraints="[\"10,9,8,6=180\"]" angle=180 pbc="F F F"
N        3.66052246      -0.00296841      -2.45552449
C        2.84700356       0.96065266      -1.98646673
C        1.88006666       0.69575350      -1.02592488
C        1.78017549      -0.61363111      -0.57225464
N        2.59056468      -1.58687259      -1.02799568
C        3.48543270      -1.22823046      -1.95190802
C        1.01862719       1.77031485      -0.52025840
O        1.24932153       2.92125750      -0.85498523
N        0.14606870       1.48797181       0.38547133
C       -1.08494592       1.00493544       0.03602826
S       -2.16563999       0.66581407       1.36087351
C       -3.20433949       0.04767119       0.11859143
N       -2.76557879       0.05461143      -1.11919219
N       -1.48988914       0.60621935      -1.16565400
O       -4.41627576      -0.45497319       0.37275137
H        2.98729371       1.96179304      -2.39461615
H        4.14211092      -2.01018827      -2.32698499
H        1.05119737      -0.90972909       0.18118742
H       -4.72065463      -0.71451445      -0.51176825
19
Properties=species:S:1:pos:R:3 energy=-8.27876965819044 constraints="[\"10,9,8,6=190\"]" angle=190 pbc="F F F"
N        3.61082165       0.65029164      -2.79751730
C        2.75189209       1.46656923      -2.16016795
C        1.83389006       0.98291380      -1.23773429
C        1.82944303      -0.38701308      -1.00622641
N        2.68609530      -1.21521199      -1.63275104
C        3.52920075      -0.64999486      -2.50028998
C        0.91925134       1.89691182      -0.54607799
O        1.01438182       3.09748061      -0.74487004
N        0.14543693       1.41783253       0.36570298
C       -1.10795974       0.98007330       0.03923241
S       -2.15521137       0.60901350       1.38213329
C       -3.24781374       0.07370514       0.14742822
N       -2.84775130       0.12537312      -1.10253067
N       -1.56013529       0.64684193      -1.16566815
O       -4.46417187      -0.40956408       0.41780619
H        2.81587373       2.52823652      -2.39953640
H        4.22278941      -1.31362502      -3.01204968
H        1.14072991      -0.85141397      -0.30127069
H       -4.80333931      -0.61875337      -0.46736477
19
Properties=species:S:1:pos:R:3 energy=-8.289952176390045 constraints="[\"10,9,8,6=200\"]" angle=200 pbc="F F F"
N        3.52757674       1.34006728      -2.99949791
C        2.63318249       1.97825230      -2.22299444
C        1.77576499       1.28626171      -1.37860747
C        1.86808375      -0.09992737      -1.37681042
N        2.76081766      -0.75174102      -2.14556364
C        3.54134288       0.00608815      -2.91983257
C        0.81875933       2.00510777      -0.53322822
O        0.78238600       3.22448305      -0.57444324
N        0.14363111       1.33195735       0.33200255
C       -1.13400776       0.94709627       0.03752823
S       -2.14141817       0.53882592       1.39981081
C       -3.29545260       0.10119296       0.18235705
N       -2.94068788       0.20528656      -1.07817077
N       -1.64037993       0.69091172      -1.16468198
O       -4.51575199      -0.35900958       0.47461560
H        2.61890382       3.06661386      -2.28456869
H        4.26374623      -0.51418966      -3.54498317
H        1.22865553      -0.72048869      -0.74970190
H       -4.89457344      -0.50938036      -0.40637019
19
Properties=species:S:1:pos:R:3 energy=-8.297912322512277 constraints="[\"10,9,8,6=210\"]" angle=210 pbc="F F F"
N        3.47500846       2.04506129      -3.00963887
C        2.52155798       2.45859748      -2.15518999
C        1.74028007       1.55807242      -1.44446796
C        1.97234964       0.20567728      -1.66035245
N        2.92433725      -0.22247828      -2.51088843
C        3.62395311       0.72354378      -3.14254935
C        0.71370257       2.03018351      -0.51350821
O        0.53280350       3.22960225      -0.37683011
N        0.12724781       1.15958855       0.23045359
C       -1.19174637       0.88045226       0.01010951
S       -2.11589474       0.39402281       1.40534196
C       -3.38495310       0.14710543       0.25012698
N       -3.12096501       0.35505296      -1.01990245
N       -1.80214489       0.77249263      -1.16604735
O       -4.60667408      -0.27031750       0.59609944
H        2.39605414       3.53581716      -2.04378529
H        4.39414002       0.38462234      -3.83197883
H        1.39831688      -0.56741482      -1.15011349
H       -5.06037526      -0.30762664      -0.26118121
19
Properties=species:S:1:pos:R:3 energy=-8.305795460418167 constraints="[\"10,9,8,6=220\"]" angle=220 pbc="F F F"
N        3.49910975       2.66142233      -2.77994480
C        2.46295230       2.83926678      -1.94036898
C        1.73931410       1.76585354      -1.43957137
C        2.12152349       0.49445371      -1.84821160
N        3.15675670       0.30185032      -2.68737778
C        3.78993552       1.39932314      -3.10959171
C        0.61804437       1.98076403      -0.52362070
O        0.32764494       3.11829322      -0.18864561
N        0.07144984       0.94366422       0.00639408
C       -1.28519798       0.79609568      -0.07121414
S       -2.07218852       0.17798481       1.35582688
C       -3.48814733       0.18771433       0.35528906
N       -3.36233728       0.55334660      -0.90023864
N       -2.03916755       0.89474462      -1.16205455
O       -4.69083142      -0.18922840       0.80051938
H        2.22145288       3.86735375      -1.66955433
H        4.62715907       1.25102180      -3.78814242
H        1.60332811      -0.40196092      -1.50828871
H       -5.24589535      -0.07057574       0.01317675
19
Properties=species:S:1:pos:R:3 energy=-8.312859807783537 constraints="[\"10,9,8,6=230\"]" angle=230 pbc="F F F"
N        3.51439090       3.11517897      -2.42959202
C        2.44315317       3.12247326      -1.61572250
C        1.73184695       1.96322228      -1.33818944
C        2.16546544       0.79016384      -1.94299357
N        3.23614844       0.76850345      -2.75923857
C        3.85325932       1.93587438      -2.95924040
C        0.57100334       1.99189797      -0.44714933
O        0.23712510       3.04817082       0.06635146
N        0.03253767       0.86625046      -0.13343798
C       -1.33055482       0.76309946      -0.12469972
S       -2.04191508       0.07102308       1.30807803
C       -3.51991888       0.19485678       0.40991033
N       -3.46497759       0.64305130      -0.82392667
N       -2.15078659       0.96146401      -1.15217214
O       -4.70297515      -0.17605599       0.90962147
H        2.16264266       4.08272298      -1.18227877
H        4.71897224       1.92553883      -3.61787639
H        1.66094765      -0.16273643      -1.78443436
H       -5.30438898       0.01591240       0.17242731
19
Properties=species:S:1:pos:R:3 energy=-8.319356253567634 constraints="[\"10,9,8,6=240\"]" angle=240 pbc="F F F"
N        3.55605638       3.42665141      -1.99981103
C        2.45630047       3.29829871      -1.23569173
C        1.73654588       2.11221272      -1.18896183
C        2.19337765       1.05920100      -1.97173423
N        3.29272205       1.17405400      -2.74075309
C        3.91532590       2.35520563      -2.71327663
C        0.54402944       1.99211754      -0.34877636
O        0.18918558       2.94714163       0.32443125
N       -0.00674635       0.83246857      -0.26085464
C       -1.36877470       0.74926721      -0.17562221
S       -2.01035064      -0.01226631       1.25500242
C       -3.53465924       0.18989416       0.45346623
N       -3.54155522       0.70763637      -0.75423228
N       -2.24202483       1.02168237      -1.14031416
O       -4.69451014      -0.18952928       0.99919919
H        2.15936791       4.17045884      -0.65275620
H        4.80415870       2.45475458      -3.33249600
H        1.68486621       0.09564628      -1.99882181
H       -5.33304859       0.05638673       0.31092642
19
Properties=species:S:1:pos:R:3 energy=-8.326246175962426 constraints="[\"10,9,8,6=250\"]" angle=250 pbc="F F F"
N        3.62890436       3.58876410      -1.53200883
C        2.50087582       3.36085262      -0.83541046
C        1.75491236       2.20399383      -1.01555947
C        2.21679711       1.28845052      -1.95316666
N        3.34436395       1.50412045      -2.65690018
C        3.99033752       2.64605807      -2.40765338
C        0.53143772       1.97383510      -0.24563655
O        0.17154769       2.81200132       0.56641834
N       -0.05013199       0.83390665      -0.38341552
C       -1.40620855       0.75328350      -0.22545493
S       -1.97610786      -0.08224591       1.19459047
C       -3.53972268       0.17451716       0.49023772
N       -3.60736461       0.75750823      -0.68555274
N       -2.32773053       1.08341729      -1.12482695
O       -4.67185240      -0.22730639       1.07673786
H        2.20240307       4.12803934      -0.12057516
H        4.90203385       2.82644692      -2.97301635
H        1.68972888       0.35745853      -2.16115425
H       -5.34430903       0.06073972       0.43902680
19
Properties=species:S:1:pos:R:3 energy=-8.334126864843768 constraints="[\"10,9,8,6=260\"]" angle=260 pbc="F F F"
N        3.73183159       3.59854183      -1.06998666
C        2.57390115       3.31017855      -0.44908408
C        1.78571486       2.23612533      -0.83977232
C        2.23829724       1.46969523      -1.90693204