19
Properties=species:S:1:pos:R:3 energy=-29723.964059187336 constraints="[\"9,8,6,2=0\"]" angle=0 pbc="F F F"
N       -0.14962249      -4.08206806      -0.51137459
C        0.32787589      -2.83619086      -0.57044350
C       -0.09800696      -1.82342541       0.27104935
C       -1.05748574      -2.18226779       1.20144170
N       -1.54758775      -3.42020002       1.30122929
C       -1.06432749      -4.30203867       0.42955952
C        0.52305841      -0.44356920       0.18224459
O        1.75186102      -0.39927759       0.25965829
N       -0.25787228       0.62418281       0.01544430
C       -1.57742002       0.49728877      -0.07454203
S       -2.40792965      -0.33649507      -1.45910526
C       -3.86535135       0.17920995      -0.72483001
N       -3.76528833       0.86297395       0.35448733
N       -2.44716867       1.04841910       0.72599455
O       -5.06882371      -0.12552585      -1.27402669
H        1.08072073      -2.64198910      -1.32662098
H       -1.45830157      -5.31143588       0.49359398
H       -1.45747584      -1.44319097       1.88738751
H       -5.69975776       0.26524896      -0.65691275
19
Properties=species:S:1:pos:R:3 energy=-29723.986230478677 constraints="[\"9,8,6,2=10\"]" angle=10 pbc="F F F"
N       -0.17656548      -4.12875765       0.01306840
C        0.29117210      -2.90355597       0.26439832
C       -0.09140995      -1.78621784      -0.45748876
C       -0.99141385      -2.01530285      -1.48336227
N       -1.46865893      -3.22772145      -1.77466994
C       -1.03445376      -4.21866026      -0.99996329
C        0.52737773      -0.43500037      -0.15648611
O        1.75664545      -0.40936838      -0.08506683
N       -0.25423353       0.63886640      -0.01834784
C       -1.57339296       0.51528576       0.05575668
S       -2.41810915      -0.47674834       1.31776822
C       -3.86726638       0.14946670       0.65387323
N       -3.75383426       0.96487931      -0.32777834
N       -2.43298253       1.17722620      -0.67144256
O       -5.07688099      -0.20801785       1.15719618
H        1.00033999      -2.81288202       1.07971973
H       -1.42100303      -5.20898373      -1.21912923
H       -1.35138710      -1.19148378      -2.09042112
H       -5.70003389       0.26846349       0.59491017
19
Properties=species:S:1:pos:R:3 energy=-29723.993237410024 constraints="[\"9,8,6,2=20\"]" angle=20 pbc="F F F"
N       -0.13141254      -4.12549076      -0.49697178
C        0.30551584      -2.94236213      -0.05904224
C       -0.05989537      -1.74022672      -0.64042372
C       -0.90386444      -1.83444412      -1.73287326
N       -1.34778451      -3.00008348      -2.20893216
C       -0.93832302      -4.08342296      -1.55396134
C        0.53108858      -0.43992800      -0.12909246
O        1.74131787      -0.44777637       0.09429842
N       -0.24488168       0.64477591      -0.01751293
C       -1.56312190       0.53120013       0.03913546
S       -2.42782101      -0.59817806       1.16001779
C       -3.86526503       0.12762131       0.57355329
N       -3.73384938       1.05794628      -0.29687848
N       -2.40907641       1.29244775      -0.60636080
O       -5.08341288      -0.27362690       1.02218891
H        0.97562769      -2.95569915       0.79309399
H       -1.30058169      -5.03763693      -1.92332596
H       -1.24317759      -0.93881859      -2.24213298
H       -5.69569590       0.27985404       0.52200437
19
Properties=species:S:1:pos:R:3 energy=-29723.99088226475 constraints="[\"9,8,6,2=30\"]" angle=30 pbc="F F F"
N       -0.34547922      -3.37430216      -1.89119109
C       -0.11739054      -2.13863864      -1.44156219
C        0.08025665      -1.85073541      -0.10449975
C        0.01505254      -2.92842497       0.76098767
N       -0.22113021      -4.17507734       0.34997545
C       -0.38731948      -4.32534390      -0.96151415
C        0.41736400      -0.47190973       0.41543146
O        1.42058632      -0.37205139       1.11704430
N       -0.32403174       0.57684609       0.00864028
C       -1.59440428       0.39050566      -0.30061443
S       -2.34819499       1.49653171      -1.49996281
C       -3.80447982       0.63813011      -1.18317958
N       -3.74259809      -0.31165874      -0.32685256
N       -2.46435165      -0.46461457       0.19056551
O       -4.96294336       0.96695539      -1.81370688
H       -0.09262757      -1.34812517      -2.18502342
H       -0.57484161      -5.33509468      -1.31215225
H        0.15462767      -2.78344075       1.82583342
H       -5.59507232       0.33176141      -1.45550339
19
Properties=species:S:1:pos:R:3 energy=-29723.976677922376 constraints="[\"9,8,6,2=40\"]" angle=40 pbc="F F F"
N        0.03145338      -3.13841535      -2.21306472
C        0.14031458      -1.94877198      -1.61753146
C        0.22539819      -1.80168498      -0.24651231
C        0.17486446      -2.97119405       0.49135661
N        0.05602069      -4.17614748      -0.06787350
C       -0.00745239      -4.18834185      -1.39681088
C        0.41652045      -0.47088384       0.44515676
O        1.30913381      -0.39638898       1.28309422
N       -0.30883519       0.58486401       0.01416653
C       -1.56912569       0.39089500      -0.31704378
S       -2.34787423       1.56306131      -1.43327715
C       -3.77800191       0.63429001      -1.20151717
N       -3.69141501      -0.37848485      -0.42348013
N       -2.41374650      -0.53199674       0.09502011
O       -4.94227078       0.97546171      -1.81631114
H        0.15985681      -1.07973258      -2.26724272
H       -0.09873358      -5.16209278      -1.86709004
H        0.22782163      -2.93650342       1.57301386
H       -5.55584075       0.29440560      -1.51470857
19
Properties=species:S:1:pos:R:3 energy=-29723.947566911804 constraints="[\"9,8,6,2=50\"]" angle=50 pbc="F F F"
N        0.45236754      -2.86544863      -2.45725394
C        0.42937649      -1.73892441      -1.74119428
C        0.39661071      -1.73003414      -0.36049125
C        0.36899760      -2.96999478       0.25287603
N        0.38087186      -4.11579114      -0.42964133
C        0.42399801      -3.99428942      -1.75388553
C        0.41849905      -0.46840475       0.47251675
O        1.17914322      -0.43305537       1.43152890
N       -0.28951007       0.59542916       0.01854018
C       -1.53959843       0.39369389      -0.33218888
S       -2.35242737       1.62459857      -1.35596314
C       -3.74951939       0.62755330      -1.21478585
N       -3.63019561      -0.44269180      -0.52328819
N       -2.35143866      -0.59413576      -0.00680094
O       -4.92258734       0.97696498      -1.80990147
H        0.43732248      -0.80778572      -2.29807139
H        0.43932300      -4.91800744      -2.32323153
H        0.33039537      -3.04269631       1.33309301
H       -5.51242373       0.25219794      -1.56911889
19
Properties=species:S:1:pos:R:3 energy=-29723.90595363091 constraints="[\"9,8,6,2=60\"]" angle=60 pbc="F F F"
N        0.90530992      -2.56035509      -2.61601592
C        0.74261282      -1.51052644      -1.80724049
C        0.58884831      -1.63635353      -0.44082482
C        0.58810943      -2.92848020       0.05357188
N        0.73898716      -4.00104431      -0.72478047
C        0.89186787      -3.75082579      -2.02253555
C        0.42389474      -0.46251027       0.49709020
O        1.03193306      -0.48023389       1.55731874
N       -0.26644518       0.60957613       0.02139698
C       -1.50667781       0.39982715      -0.34558374
S       -2.36414804       1.68108081      -1.26514194
C       -3.71992354       0.61763604      -1.22228960
N       -3.55863677      -0.50333494      -0.62697330
N       -2.27708340      -0.64897886      -0.11562434
O       -4.90485452       0.96991787      -1.79403123
H        0.73577750      -0.53179313      -2.27466354
H        1.02069228      -4.61325082      -2.66844939
H        0.45378892      -3.10555424       1.11374829
H       -5.46482633       0.20363051      -1.61996470
19
Properties=species:S:1:pos:R:3 energy=-29723.856044959644 constraints="[\"9,8,6,2=70\"]" angle=70 pbc="F F F"
N        1.34623380      -2.22994320      -2.68999831
C        1.03436082      -1.27128516      -1.81454373
C        0.79126845      -1.52901439      -0.48007611
C        0.85683837      -2.85608797      -0.09541730
N        1.15743998      -3.84081284      -0.94378488
C        1.38958045      -3.46543476      -2.19876484
C        0.42779865      -0.46314331       0.52697063
O        0.86768561      -0.55275163       1.66169199
N       -0.24553504       0.61798865       0.03585938
C       -1.47710587       0.40749290      -0.34668060
S       -2.36954603       1.72730731      -1.17317611
C       -3.68626591       0.61466094      -1.23416606
N       -3.49028916      -0.54355450      -0.72797148
N       -2.21040031      -0.68566494      -0.21165339
O       -4.87737066       0.96894504      -1.79396604
H        0.97625494      -0.25904139      -2.19854100
H        1.64190357      -4.25451615      -2.89960134
H        0.65076097      -3.13587634       0.93043812
H       -5.41044861       0.17183661      -1.68712261
19
Properties=species:S:1:pos:R:3 energy=-29723.807939042566 constraints="[\"9,8,6,2=80\"]" angle=80 pbc="F F F"
N        1.83238736      -1.87656147      -2.66705792
C        1.36988381      -1.01648116      -1.75654184
C        1.00815151      -1.40210269      -0.48084673
C        1.11136385      -2.75278249      -0.20179975
N        1.56097339      -3.64190989      -1.08959854
C        1.90297046      -3.14602910      -2.27539814
C        0.44376839      -0.45271604       0.54722650
O        0.71732614      -0.61291770       1.72416283
N       -0.23040695       0.62096352       0.03495758
C       -1.45753587       0.40802076      -0.34989792
S       -2.38433620       1.75197310      -1.09440892
C       -3.66762326       0.60662395      -1.23619238
N       -3.43908327      -0.57534378      -0.80466327
N       -2.15842944      -0.71400634      -0.29004565
O       -4.86598042       0.96071634      -1.78246525
H        1.28188593       0.01958800      -2.06225025
H        2.27984089      -3.85545441      -3.00480640
H        0.80997363      -3.13384975       0.76623016
H       -5.37526593       0.14298045      -1.72918561
19
Properties=species:S:1:pos:R:3 energy=-29723.778287886023 constraints="[\"9,8,6,2=90\"]" angle=90 pbc="F F F"
N        2.51704372      -1.48834746      -2.45451006
C        1.92802249      -0.70937392      -1.54405730
C        1.24776813      -1.21585444      -0.45253601
C        1.15917805      -2.59411796      -0.38087140
N        1.72580893      -3.40312883      -1.27862064
C        2.38437093      -2.79880165      -2.26289423
C        0.50917670      -0.35041819       0.53429962
O        0.65218551      -0.51930122       1.73200255
N       -0.20679431       0.65691158      -0.05233675
C       -1.43954779       0.40094437      -0.38556477
S       -2.42986702       1.70394420      -1.11697597
C       -3.68010870       0.51745165      -1.21003788
N       -3.40089751      -0.65089557      -0.77120589
N       -2.10339996      -0.74165587      -0.28992105
O       -4.90279721       0.82544531      -1.72976798
H        1.99879455       0.36034878      -1.70383955
H        2.86394774      -3.44371487      -2.99170136
H        0.59709001      -3.06663939       0.41570602
H       -5.38424187      -0.00704314      -1.65144404
19
Properties=species:S:1:pos:R:3 energy=-29723.78172903763 constraints="[\"9,8,6,2=100\"]" angle=100 pbc="F F F"
N        3.01683307      -1.07607809      -2.21167354
C        2.27605950      -0.40908737      -1.32330701
C        1.44460063      -1.03976531      -0.41549570
C        1.37968144      -2.41798663      -0.51296738
N        2.09868367      -3.11633010      -1.39462059
C        2.88754867      -2.40074367      -2.19028334
C        0.53283740      -0.30074572       0.52776324
O        0.54251123      -0.54329850       1.72204478
N       -0.20174247       0.67122757      -0.09253405
C       -1.43915966       0.39796505      -0.40038963
S       -2.47221536       1.70263011      -1.06322821
C       -3.69242809       0.48931378      -1.19184188
N       -3.37685638      -0.68837575      -0.80486842
N       -2.07188616      -0.76326473      -0.34264656
O       -4.92799247       0.78490149      -1.68696487
H        2.35076831       0.67180975      -1.35011374
H        3.48981055      -2.95590268      -2.90163626
H        0.71230955      -2.98281068       0.12703356
H       -5.38674826      -0.06252106      -1.63742857
19
Properties=species:S:1:pos:R:3 energy=-29723.80640350418 constraints="[\"9,8,6,2=110\"]" angle=110 pbc="F F F"
N        3.29694959      -0.61587030      -2.01892802
C        2.39348594      -0.10645414      -1.17813407
C        1.60651444      -0.89262576      -0.35559383
C        1.77863654      -2.25903626      -0.48303654
N        2.66528814      -2.80325695      -1.31999979
C        3.38258048      -1.94397987      -2.03692556
C        0.52173234      -0.34644957       0.53422555
O        0.39301696      -0.75778396       1.67641599
N       -0.21260868       0.63991015      -0.05568242
C       -1.45206939       0.38583338      -0.38302695
S       -2.50100687       1.74631240      -0.89021554
C       -3.69977531       0.54102469      -1.17827674
N       -3.36827766      -0.67052819      -0.93416764
N       -2.06653462      -0.78003859      -0.47057460
O       -4.93481661       0.87523341      -1.64838747
H        2.29629363       0.97244625      -1.17085979
H        4.11670408      -2.37118501      -2.71179350
H        1.17160736      -2.94434744       0.09621099
H       -5.38038183       0.02127158      -1.70619555
19
Properties=species:S:1:pos:R:3 energy=-29723.869451736366 constraints="[\"9,8,6,2=120\"]" angle=120 pbc="F F F"
N        3.11535438      -2.03490414      -2.21223770
C        2.35340770      -1.74490675      -1.15404626
C        1.63686000      -0.56577540      -1.04587589
C        1.74391930       0.30842351      -2.11215126
N        2.50192659       0.05324560      -3.18151124
C        3.14695567      -1.11032453      -3.16690373
C        0.71566556      -0.33616397       0.13227014
O        0.73849235      -1.12296018       1.07325727
N       -0.08351608       0.74504286       0.02788196
C       -1.39060041       0.63035535       0.05043696
S       -2.27790919      -0.93357076      -0.01634569
C       -3.70012500       0.02854136      -0.06522135
N       -3.54445596       1.29835860      -0.02385340
N       -2.21474161       1.65871360       0.04516941
O       -4.93356176      -0.54580319      -0.14790932
H        2.30776749      -2.48421799      -0.36414130
H        3.76693653      -1.32920390      -4.02996713
H        1.19539319       1.24188455      -2.10672448
H       -5.52463043       0.21685907      -0.15293053
19
Properties=species:S:1:pos:R:3 energy=-29723.958203569637 constraints="[\"9,8,6,2=130\"]" angle=130 pbc="F F F"
N        3.38306082      -1.78885585      -2.06119554
C        2.48313083      -1.59447316      -1.09309783
C        1.79506817      -0.40439659      -0.93384118
C        2.09293559       0.59233466      -1.84610248
N        2.99230950       0.43448009      -2.82087206
C        3.58662399      -0.75480658      -2.87095933
C        0.72489416      -0.28113658       0.12976423
O        0.64162155      -1.15131328       0.99485954
N       -0.08586770       0.78204362      -0.00371296
C       -1.39729973       0.63314708       0.03984719
S       -2.26224724      -0.94250024      -0.00268326
C       -3.69663643      -0.00195728      -0.05496323
N       -3.55998580       1.27106894      -0.02340569
N       -2.23395631       1.64756355       0.03636173
O       -4.92128744      -0.59378903      -0.13001082
H        2.30039895      -2.42310728      -0.42034797
H        4.31833814      -0.89594420      -3.65954105
H        1.58797153       1.54843742      -1.79554104
H       -5.52396390       0.15980468      -0.13991004
19
Properties=species:S:1:pos:R:3 energy=-29724.065548125167 constraints="[\"9,8,6,2=140\"]" angle=140 pbc="F F F"
N        3.63944159      -1.54095417      -1.86671359
C        2.60170854      -1.46217166      -1.02864738
C        1.92498534      -0.28166606      -0.77894441
C        2.38445803       0.83321227      -1.45830430
N        3.42357358       0.79187996      -2.29617083
C        3.99292824      -0.40086158      -2.45098270
C        0.70493710      -0.27327732       0.11410034
O        0.45653537      -1.27060646       0.79914747
N       -0.07058423       0.81166747      -0.01405597
C       -1.39178225       0.64276691       0.01000487
S       -2.24429111      -0.90004622       0.35102896
C       -3.67730616      -0.01774377       0.02570854
N       -3.54962358       1.22821010      -0.25180242
N       -2.22580515       1.61950856      -0.24974716
O       -4.89833828      -0.61911095       0.05899859
H        2.29597307      -2.38006759      -0.54209036
H        4.83885844      -0.44781873      -3.12878902
H        1.89473862       1.78939835      -1.32933615
H       -5.50033599       0.10207148      -0.16231069
19
Properties=species:S:1:pos:R:3 energy=-29724.176447031656 constraints="[\"9,8,6,2=150\"]" angle=150 pbc="F F F"
N        3.92591138      -1.30355699      -1.53705426
C        2.77169339      -1.32701764      -0.86378939
C        2.03163314      -0.18855944      -0.60182038
C        2.55516409       0.99717862      -1.08682748
N        3.70902394       1.05823140      -1.75628685
C        4.32987226      -0.10402300      -1.94191861
C        0.69712176      -0.27770378       0.10352490
O        0.37269805      -1.34277861       0.64710680
N       -0.06548683       0.81051547      -0.02643234
C       -1.39422090       0.63669616      -0.00522844
S       -2.24379551      -0.89534860       0.36249717
C       -3.67755529      -0.01521582       0.03521839
N       -3.54797964       1.22604119      -0.26615427
N       -2.22228035       1.61161707      -0.27787701
O       -4.90135795      -0.60864448       0.09004391
H        2.42445676      -2.29558133      -0.52592964
H        5.26929300      -0.06859334      -2.48367244
H        2.02170387       1.92620181      -0.93635854
H       -5.50154776       0.11123548      -0.14043477
19
Properties=species:S:1:pos:R:3 energy=-29724.26604622743 constraints="[\"9,8,6,2=160\"]" angle=160 pbc="F F F"
N        4.18682908      -1.10108600      -1.08472791
C        2.94263335      -1.22202683      -0.61119878
C        2.11012518      -0.13766404      -0.40739626
C        2.63736259       1.09999785      -0.73057212
N        3.87737336       1.25840129      -1.19965753
C        4.58289229       0.13981902      -1.34840454
C        0.69029527      -0.31457059       0.08339398
O        0.31519062      -1.43584344       0.46284780
N       -0.05628361       0.78301827      -0.02018934
C       -1.39242128       0.62009652      -0.00583676
S       -2.25789380      -0.91688237       0.27453594
C       -3.68280298       0.00299931       0.02562924
N       -3.53692695       1.25787077      -0.20602132
N       -2.20483400       1.62145338      -0.21503458
O       -4.91593650      -0.57127400       0.06921464
H        2.60105851      -2.22613326      -0.39172760
H        5.59325278       0.25313472      -1.72742610
H        2.02976211       1.98687561      -0.61063302
H       -5.50714712       0.17098151      -0.10726130
19
Properties=species:S:1:pos:R:3 energy=-29724.324264166866 constraints="[\"9,8,6,2=170\"]" angle=170 pbc="F F F"
N        4.35443284      -0.97325941      -0.55867043
C        3.05302512      -1.15714847      -0.31404627
C        2.15730683      -0.11055310      -0.20447147
C        2.68424887       1.15810109      -0.36755063
N        3.97856828       1.37908532      -0.60937336
C        4.74121541       0.29143960      -0.69015884
C        0.68391787      -0.34603001       0.04787558
O        0.27835600      -1.50461892       0.24495817
N       -0.05204518       0.75933315      -0.01069239
C       -1.39235654       0.60675443      -0.00352208
S       -2.27123419      -0.93806522       0.14791685
C       -3.68859393       0.01701947       0.01318313
N       -3.52977024       1.28559455      -0.11258861
N       -2.19296698       1.63173110      -0.11726028
O       -4.92880049      -0.54274951       0.03700206
H        2.71910328      -2.18170763      -0.20475228
H        5.79598157       0.45491802      -0.88541123
H        2.02881456       2.01614632      -0.30270659
H       -5.51287708       0.21969880      -0.05872896
19
Properties=species:S:1:pos:R:3 energy=-29724.34423922742 constraints="[\"9,8,6,2=180\"]" angle=180 pbc="F F F"
N        4.40916979      -0.93907299       0.00352859
C        3.08774438      -1.14211638       0.00349659
C        2.17197574      -0.10724230       0.00194524
C        2.70134886       1.17079768       0.00041745
N        4.01475223       1.41077802       0.00041760
C        4.79503918       0.33272435       0.00197838
C        0.67995026      -0.36130308       0.00190252
O        0.26257181      -1.53283501       0.00353159
N       -0.05100291       0.74806428       0.00003887
C       -1.39271383       0.60103028      -0.00012117
S       -2.27814816      -0.94658513       0.00197205
C       -3.69167878       0.02366428       0.00006574
N       -3.52683355       1.29778002      -0.00182267
N       -2.18801496       1.63611992      -0.00193299
O       -4.93498988      -0.52959458       0.00052330
H        2.75461709      -2.17274475       0.00475526
H        5.86529231       0.51149623       0.00198536
H        2.03185511       2.02036131      -0.00084087
H       -5.51564882       0.24143005      -0.00083421
19
Properties=species:S:1:pos:R:3 energy=-29724.32426362264 constraints="[\"9,8,6,2=190\"]" angle=190 pbc="F F F"
N        3.54667048       1.50947949       1.57427427
C        2.36859672       1.24274817       1.00543215
C        1.79723494      -0.01706209       1.01829166
C        2.51676058      -1.00186135       1.66801072
N        3.69722778      -0.77010250       2.25118664
C        4.14450855       0.47855733       2.16665907
C        0.45084542      -0.29894734       0.38759606
O        0.01534383      -1.46337957       0.37886644
N       -0.16161916       0.78697132      -0.07346082
C       -1.44692261       0.65072608      -0.45971964
S       -2.38195783      -0.86824908      -0.47524312
C       -3.67851257       0.10033507      -1.04096296
N       -3.44576331       1.35330613      -1.20288136
N       -2.14482085       1.67504665      -0.86984206
O       -4.90209837      -0.43299931      -1.30631505
H        1.84621029       2.05624180       0.52027187
H        5.10350998       0.67945725       2.63285119
H        2.13569495      -2.01399763       1.72751164
H       -5.41366816       0.33190295      -1.59761988
19
Properties=species:S:1:pos:R:3 energy=-29724.26604649954 constraints="[\"9,8,6,2=200\"]" angle=200 pbc="F F F"
N        4.17911342      -1.12827780       1.08833388
C        2.93449131      -1.24426644       0.61468665
C        2.10690499      -0.15645118       0.40924337
C        2.63962297       1.07926331       0.73087978
N        3.88022957       1.23272696       1.20003211
C        4.58068645       0.11118898       1.35043674
C        0.68640298      -0.32763979      -0.08162981
O        0.30635227      -1.44772453      -0.45966837
N       -0.05526419       0.77342683       0.02031758
C       -1.39211648       0.61648493       0.00588183
S       -2.26441758      -0.91696747      -0.27263056
C       -3.68523804       0.00963252      -0.02527492
N       -3.53378161       1.26414548       0.20473035
N       -2.20007204       1.62175726       0.21355746
O       -4.92092722      -0.55915818      -0.06837020
H        2.58845981      -2.24712268       0.39648438
H        5.59146233       0.22047561       1.72953368
H        2.03603690       1.96869846       0.60961595
H       -5.50883878       0.18597902       0.10697990
19
Properties=species:S:1:pos:R:3 energy=-29724.176447031656 constraints="[\"9,8,6,2=210\"]" angle=210 pbc="F F F"
N        3.91738275      -1.32889096       1.54068234
C        2.76318600      -1.34814526       0.86724219
C        2.02812110      -0.20680087       0.60377699
C        2.55670040       0.97723388       1.08746859
N        3.71070598       1.03407926       1.75704556
C        4.32648206      -0.13063559       1.94417146
C        0.69337345      -0.29098147      -0.10172734
O        0.36423205      -1.35542290      -0.64371890
N       -0.06432218       0.80087961       0.02637713
C       -1.39382272       0.63306305       0.00514426
S       -2.25024451      -0.89566935      -0.36049531
C       -3.68007072      -0.00855460      -0.03484013
N       -3.54493979       1.23254754       0.26473321
N       -2.21751576       1.61212660       0.27617293
O       -4.90654624      -0.59651292      -0.08906030
H        2.41179837      -2.31559814       0.53049593
H        5.26596428      -0.09863089       2.48603133
H        2.02729258       1.90837615       0.93579121
H       -5.50351451       0.12642527       0.14020782
19
Properties=species:S:1:pos:R:3 energy=-29724.065546220372 constraints="[\"9,8,6,2=220\"]" angle=220 pbc="F F F"
N        3.62979468      -1.56444996       1.87072018
C        2.59258804      -1.48223345       1.03232901
C        1.92103490      -0.29912892       0.78098089
C        2.38514549       0.81459998       1.45907444
N        3.42389098       0.76982735       2.29722101
C        3.98807663      -0.42516188       2.45363521
C        0.70121665      -0.28657682      -0.11232694
O        0.44842175      -1.28383414      -0.79587193
N       -0.06940658       0.80206466       0.01399018
C       -1.39134601       0.63911472      -0.01008992
S       -2.25073867      -0.90031509      -0.34910211
C       -3.67982449      -0.01108345      -0.02533122
N       -3.54657028       1.23467608       0.25043221
N       -2.22100017       1.61998617       0.24810150
O       -4.90356103      -0.60698029      -0.05802266
H        2.28297700      -2.39941729       0.54688168
H        4.83366449      -0.47491922       3.13166870
H        1.89955313       1.77271376       1.32881380
H       -5.50233511       0.11722873       0.16214309
19
Properties=species:S:1:pos:R:3 energy=-29723.95820520232 constraints="[\"9,8,6,2=230\"]" angle=230 pbc="F F F"
N        3.37223146      -1.81084331       2.06561046
C        2.47339537      -1.61382105       1.09702989
C        1.79053573      -0.42098223       0.93605079
C        2.09248045       0.57563021       1.84710132
N        2.99090765       0.41514439       2.82231364
C        3.58005831      -0.77663706       2.87408827
C        0.72117140      -0.29446263      -0.12798656
O        0.63421292      -1.16550177      -0.99185197
N       -0.08484778       0.77253070       0.00375551
C       -1.39692458       0.62946446      -0.03990288
S       -2.26894680      -0.94221851       0.00482460
C       -3.69911493       0.00483214       0.05533336
N       -3.55673703       1.27718303       0.02186580
N       -2.22901979       1.64762990      -0.03816204
O       -4.92643214      -0.58137979       0.13099559
H        2.28724379      -2.44252963       0.42531058
H        4.31095435      -0.91991637       3.66304215
H        1.59167277       1.53384302       1.79516527
H       -5.52571748       0.17492876       0.13960944
19
Properties=species:S:1:pos:R:3 energy=-29723.86945119214 constraints="[\"9,8,6,2=240\"]" angle=240 pbc="F F F"
N        3.10325309      -2.05551750       2.21704774
C        2.34286002      -1.76360129       1.15826453
C        1.63158344      -0.58145071       1.04828313
C        1.74226401       0.29373915       2.11337561
N        2.49887008       0.03668076       3.18327581
C        3.13872774      -1.12976309       3.17043976
C        0.71170372      -0.34938078      -0.13040533
O        0.73123752      -1.13759526      -1.07028043
N       -0.08266858       0.73552548      -0.02772582
C       -1.39024394       0.62664279      -0.05043870
S       -2.28453869      -0.93321497       0.01829635
C       -3.70245816       0.03530537       0.06549398
N       -3.54111333       1.30435719       0.02240300
N       -2.20978927       1.65867531      -0.04679806
O       -4.93846888      -0.53341386       0.14868007
H        2.29412675      -2.50379740       0.36937410
H        3.75751983      -1.35019804       4.03395964
H        1.19789127       1.22961902       2.10651965
H       -5.52612654       0.23188641       0.15250179
19
Properties=species:S:1:pos:R:3 energy=-29723.80640268783 constraints="[\"9,8,6,2=250\"]" angle=250 pbc="F F F"
N        3.30104299      -0.58768519       2.02185107
C        2.39545285      -0.08364317       1.18010999
C        1.61258333      -0.87458318       0.35822672
C        1.79125838      -2.23999318       0.48735101
N        2.68022679      -2.77892641       1.32528083
C        3.39308472      -1.91534404       2.04145529
C        0.52550716      -0.33469826      -0.53263097
O        0.39904148      -0.74818304      -1.67429777
N       -0.21357177       0.64905748       0.05570659
C       -1.45192324       0.38970927       0.38309563
S       -2.50727547       1.74603158       0.88811509
C       -3.70052100       0.53560083       1.17758920
N       -3.36335239      -0.67474420       0.93524046
N       -2.06101371      -0.77886797       0.47211405
O       -4.93722071       0.86474139       1.64695308
H        2.29304053       0.99476414       1.17151561
H        4.12901250      -2.33819458       2.71710047
H        1.18777644      -2.92891672      -0.09131776
H       -5.37883202       0.00880374       1.70585027
19
Properties=species:S:1:pos:R:3 energy=-29723.781729853967 constraints="[\"9,8,6,2=260\"]" angle=260 pbc="F F F"
N        3.02339819      -1.04900060       2.21476812
C        2.27980833      -0.38659245       1.32532671
C        1.45135963      -1.02227093       0.41825173
C        1.39259506      -2.40063069       0.51766193