19
Properties=species:S:1:pos:R:3 energy=-29724.344236778394 constraints="[\"10,9,8,6=0\"]" angle=0 pbc="F F F"
N        4.32346749      -0.99375999       0.94694166
C        3.00719519      -1.18476671       0.81149340
C        2.11701296      -0.14625029       0.61488870
C        2.66671292       1.12218765       0.56463510
N        3.97570174       1.35004945       0.69591273
C        4.73052436       0.26967373       0.88053608
C        0.63034736      -0.38661125       0.46412145
O        0.19392982      -1.54996938       0.51748265
N       -0.07495734       0.72459140       0.28314747
C       -1.41033271       0.58956111       0.14055463
S       -2.31867879      -0.94438950       0.17241515
C       -3.70453525       0.03408363      -0.07551080
N       -3.51700180       1.30175836      -0.16707158
N       -2.18092479       1.62734061      -0.04142541
O       -4.94978108      -0.50638472      -0.17142859
H        2.65703406      -2.20844152       0.86294414
H        5.79687210       0.43863483       0.98895316
H        2.01764800       1.97404693       0.41286988
H       -5.51210483       0.26654627      -0.30564361
19
Properties=species:S:1:pos:R:3 energy=-29724.33467279331 constraints="[\"10,9,8,6=10\"]" angle=10 pbc="F F F"
N        4.40059447      -0.93628239      -0.36511091
C        3.07833399      -1.13350719      -0.37733893
C        2.16778829      -0.11129327      -0.18888546
C        2.70334075       1.14758949       0.01580571
N        4.01779273       1.38108860       0.03569167
C        4.79266202       0.31654285      -0.15754035
C        0.67465340      -0.35899908      -0.20724588
O        0.25222063      -1.51375062      -0.39143831
N       -0.05100179       0.73620659      -0.00851059
C       -1.39338332       0.59848880      -0.03746075
S       -2.28716553      -0.94407797      -0.06786019
C       -3.69499681       0.03190168      -0.00250884
N       -3.52359999       1.30473832       0.02639222
N       -2.18308206       1.63652819       0.01112478
O       -4.94053879      -0.51606782       0.00955300
H        2.74000787      -2.14878450      -0.54444543
H        5.86366199       0.49030827      -0.14437150
H        2.03821901       1.98707472       0.16702585
H       -5.51764596       0.25711097       0.03754056
19
Properties=species:S:1:pos:R:3 energy=-29724.308018698583 constraints="[\"10,9,8,6=20\"]" angle=20 pbc="F F F"
N        4.39946038      -0.83023938      -0.70841842
C        3.07757902      -1.02796783      -0.74016164
C        2.16655487      -0.05531920      -0.37500771
C        2.70109643       1.15414174       0.03066890
N        4.01524298       1.38619838       0.07713150
C        4.79060942       0.37190643      -0.29825288
C        0.67375594      -0.30462023      -0.41965635
O        0.25422035      -1.41282995      -0.79252322
N       -0.05307499       0.73671187      -0.02692687
C       -1.39533642       0.60446507      -0.07610386
S       -2.28933759      -0.93785428      -0.12783794
C       -3.69573585       0.03312922      -0.00082786
N       -3.52517159       1.30500163       0.05262112
N       -2.18509370       1.63876291       0.01752742
O       -4.93898760      -0.51901214       0.02802006
H        2.73943742      -2.00248460      -1.07056889
H        5.86128814       0.54528511      -0.26627677
H        2.03598734       1.95485774       0.32477856
H       -5.51777592       0.25140534       0.08366977
19
Properties=species:S:1:pos:R:3 energy=-29724.27108223824 constraints="[\"10,9,8,6=30\"]" angle=30 pbc="F F F"
N        4.39790270      -0.66793103      -1.01219980
C        3.07610806      -0.85851839      -1.07603090
C        2.16425139       0.03946928      -0.55525785
C        2.69777334       1.16591248       0.04385512
N        4.01191937       1.38809303       0.12834454
C        4.78805533       0.45024482      -0.40898149
C        0.67154644      -0.20439377      -0.64046656
O        0.25696830      -1.22642175      -1.20837530
N       -0.05721998       0.74714732      -0.06479480
C       -1.39919014       0.61690211      -0.11644090
S       -2.28845588      -0.92962545      -0.16891811
C       -3.69573507       0.03069808       0.00979380
N       -3.53042984       1.30210018       0.07709674
N       -2.19266954       1.64337025       0.01343130
O       -4.93318812      -0.53180937       0.06455153
H        2.73773873      -1.76509891      -1.56266510
H        5.85861279       0.61670137      -0.34837457
H        2.03300642       1.90768707       0.46566653
H       -5.51670105       0.23282899       0.14504410
19
Properties=species:S:1:pos:R:3 energy=-29724.234282651156 constraints="[\"10,9,8,6=40\"]" angle=40 pbc="F F F"
N        4.38973055      -0.47321231      -1.28044907
C        3.06698195      -0.64059358      -1.37954403
C        2.15838519       0.16548266      -0.72110207
C        2.69633939       1.17426229       0.05650391
N        4.01172152       1.37009870       0.18101343
C        4.78425680       0.52759809      -0.49996972
C        0.66475454      -0.05586964      -0.85226915
O        0.25262225      -0.94828350      -1.60618102
N       -0.06359524       0.77525978      -0.11306650
C       -1.40457290       0.63911391      -0.15285373
S       -2.27755810      -0.91995224      -0.18525353
C       -3.69271767       0.02127332       0.02564751
N       -3.54152742       1.29372845       0.09432883
N       -2.20936431       1.65211548      -0.00043154
O       -4.91953960      -0.55993242       0.10894667
H        2.72358841      -1.45142010      -2.01025819
H        5.85558214       0.67384099      -0.40843847
H        2.03613813       1.84266332       0.59272305
H       -5.51285021       0.19523483       0.20570411
19
Properties=species:S:1:pos:R:3 energy=-29724.20187606988 constraints="[\"10,9,8,6=50\"]" angle=50 pbc="F F F"
N        4.37087251      -0.24753233      -1.53557584
C        3.04615861      -0.38507164      -1.65216026
C        2.14804775       0.30603206      -0.86181121
C        2.69918425       1.16661178       0.06921841
N        4.01711836       1.32860450       0.21553119
C        4.77848491       0.60546476      -0.60143019
C        0.65216869       0.11702564      -1.02121304
O        0.23395020      -0.61998903      -1.92332867
N       -0.06939072       0.80591038      -0.14296922
C       -1.40932452       0.66506117      -0.17573202
S       -2.26139794      -0.90878752      -0.19006680
C       -3.68823582       0.01123576       0.03440355
N       -3.55399205       1.28509663       0.10273882
N       -2.22792228       1.66304352      -0.01078209
O       -4.90410927      -0.58928699       0.13342312
H        2.69094857      -1.07527685      -2.40749466
H        5.85154154       0.72560033      -0.49357092
H        2.04990607       1.74263265       0.71488090
H       -5.50858210       0.15605871       0.23711576
19
Properties=species:S:1:pos:R:3 energy=-29724.170221611254 constraints="[\"10,9,8,6=60\"]" angle=60 pbc="F F F"
N        4.07291629       0.12822288      -2.62251462
C        2.73986508       0.03280805      -2.58831036
C        1.98059211       0.50313428      -1.53410763
C        2.68263635       1.09348834      -0.49994824
N        4.01395931       1.20526153      -0.49851103
C        4.63276425       0.71115224      -1.56749331
C        0.47016756       0.36791982      -1.53468428
O       -0.08771216      -0.10899338      -2.53057788
N       -0.10757147       0.80730539      -0.42197042
C       -1.44528996       0.68733715      -0.31360454
S       -2.30850522      -0.88147627      -0.37241697
C       -3.69068414       0.01006711       0.10503388
N       -3.53582580       1.27099960       0.28041282
N       -2.22826445       1.66047790       0.04538995
O       -4.89162606      -0.59955952       0.28901596
H        2.26097112      -0.43834885      -3.43783500
H        5.71470135       0.79352324      -1.57977237
H        2.14868942       1.48930015       0.35359618
H       -5.47318458       0.13091799       0.53376642
19
Properties=species:S:1:pos:R:3 energy=-29724.13541988398 constraints="[\"10,9,8,6=70\"]" angle=70 pbc="F F F"
N        4.03102490       0.47514973      -2.77168432
C        2.69787814       0.38575413      -2.72738687
C        1.96317906       0.67246759      -1.59279289
C        2.69105126       1.06912905      -0.48664269
N        4.02343931       1.16845542      -0.49280158
C        4.61684036       0.86219864      -1.64330643
C        0.45139748       0.55125049      -1.58993986
O       -0.12633478       0.24694088      -2.64021928
N       -0.10590633       0.80157503      -0.41100232
C       -1.44543709       0.69749315      -0.30913946
S       -2.30719517      -0.87351843      -0.38057142
C       -3.69261233       0.01287518       0.09748712
N       -3.53897021       1.27213046       0.28443554
N       -2.23023365       1.66471722       0.05625976
O       -4.89334567      -0.59924653       0.27167587
H        2.19753769       0.07255468      -3.63541566
H        5.69922151       0.93703284      -1.66289370
H        2.17918676       1.31564193       0.43399359
H       -5.47716965       0.12866811       0.51871843
19
Properties=species:S:1:pos:R:3 energy=-29724.1013615717 constraints="[\"10,9,8,6=80\"]" angle=80 pbc="F F F"
N        4.00213469       0.85348881      -2.84175427
C        2.66927622       0.76188131      -2.79411138
C        1.95169222       0.84577831      -1.61614597
C        2.69752533       1.03749171      -0.46826038
N        4.03032234       1.13216225      -0.47643960
C        4.60589886       1.03289755      -1.67153562
C        0.43913708       0.73194226      -1.61587537
O       -0.15033394       0.60310674      -2.69491640
N       -0.10452968       0.78312653      -0.40620394
C       -1.44535070       0.69904941      -0.30457073
S       -2.31489432      -0.86969614      -0.38606879
C       -3.69765927       0.02010810       0.09356426
N       -3.53860544       1.27732464       0.28867595
N       -2.22723679       1.66575344       0.06487684
O       -4.90115807      -0.58768317       0.26165435
H        2.15413448       0.61568400      -3.73545095
H        5.68829753       1.10686046      -1.69348384
H        2.20157202       1.11829743       0.48979509
H       -5.48266131       0.14140842       0.51071081
19
Properties=species:S:1:pos:R:3 energy=-29724.073182278913 constraints="[\"10,9,8,6=90\"]" angle=90 pbc="F F F"
N        4.26212663       1.10927901      -2.12037695
C        2.93398619       0.99268367      -2.21813986
C        2.09914254       0.95441319      -1.11748721
C        2.72097838       1.04810147       0.11346664
N        4.04510343       1.16393307       0.25073555
C        4.74040283       1.18718353      -0.88294900
C        0.59748365       0.81985539      -1.28607063
O        0.12934531       0.75908294      -2.42815885
N       -0.07065246       0.76795698      -0.14070607
C       -1.41497114       0.69433166      -0.17784595
S       -2.27023699      -0.88573444      -0.22390647
C       -3.69847771       0.02753312       0.02253700
N       -3.56272117       1.29803201       0.12796170
N       -2.23452618       1.67987803       0.01934366
O       -4.91276673      -0.57593811       0.10675790
H        2.51972838       0.92730296      -3.21657532
H        5.81727462       1.28018050      -0.78680272
H        2.13066307       1.02986543       1.01987467
H       -5.51874302       0.16569928       0.22722010
19
Properties=species:S:1:pos:R:3 energy=-29724.053588449846 constraints="[\"10,9,8,6=100\"]" angle=100 pbc="F F F"
N        3.98419820       1.62068213      -2.71715308
C        2.65178042       1.51664361      -2.68813700
C        1.94816626       1.17266136      -1.54936441
C        2.70945408       0.93923035      -0.41942325
N        4.04253653       1.03175109      -0.41037527
C        4.60310816       1.36919973      -1.56836905
C        0.43454417       1.07196973      -1.57525733
O       -0.15705326       1.28503926      -2.63848603
N       -0.10338434       0.72959142      -0.41095187
C       -1.44392161       0.69332578      -0.29578647
S       -2.33663871      -0.86453300      -0.38821607
C       -3.70834827       0.04276207       0.09311173
N       -3.53182646       1.29648488       0.29427656
N       -2.21456745       1.66893815       0.07446286
O       -4.92019531      -0.54903474       0.25743157
H        2.12396899       1.71627504      -3.61236729
H        5.68537881       1.44783174      -1.57588804
H        2.22867228       0.66872149       0.51119376
H       -5.49168744       0.18718957       0.50863496
19
Properties=species:S:1:pos:R:3 energy=-29724.043780650758 constraints="[\"10,9,8,6=110\"]" angle=110 pbc="F F F"
N        4.21781836       1.87061557      -1.92189348
C        2.89324410       1.74031519      -2.04588189
C        2.08387529       1.27120428      -1.02831574
C        2.72939006       0.93756445       0.14769395
N        4.05112346       1.05234541       0.30822269
C        4.72001588       1.51555898      -0.74387959
C        0.58465657       1.15107006      -1.22753749
O        0.11015136       1.42274221      -2.33442208
N       -0.06972210       0.71611327      -0.15599759
C       -1.41399864       0.69175269      -0.17139207
S       -2.28735192      -0.87819070      -0.21988579
C       -3.70596448       0.05194401       0.02780162
N       -3.55471426       1.32051713       0.13276606
N       -2.22264452       1.68875793       0.02274573
O       -4.92716883      -0.53739579       0.11443531
H        2.45944244       2.02203395      -2.99718485
H        5.79438413       1.61428226      -0.62753506
H        2.16314312       0.56482151       0.99077306
H       -5.52380139       0.21155569       0.23617255
19
Properties=species:S:1:pos:R:3 energy=-29724.040224394997 constraints="[\"10,9,8,6=120\"]" angle=120 pbc="F F F"
N        4.02060177       2.26900684      -2.24144809
C        2.68822724       2.16533809      -2.26825798
C        1.97077202       1.42755068      -1.34527649
C        2.71957878       0.78850560      -0.37460947
N        4.05247764       0.86678146      -0.31717112
C        4.62633942       1.60828962      -1.26036341
C        0.45740023       1.35753184      -1.42459965
O       -0.10897498       1.87898039      -2.38861568
N       -0.10518243       0.67381587      -0.43108692
C       -1.44044794       0.68950976      -0.29075003
S       -2.35161486      -0.85517699      -0.37731939
C       -3.71289886       0.07131682       0.10255019
N       -3.51924923       1.32319643       0.29792505
N       -2.19858712       1.68037432       0.07458703
O       -4.93212095      -0.50455380       0.27197106
H        2.17090759       2.69299517      -3.05970745
H        5.70843452       1.68156018      -1.22507662
H        2.23093966       0.19197925       0.38415863
H       -5.49281819       0.24000494       0.52288032
19
Properties=species:S:1:pos:R:3 energy=-29724.038556881398 constraints="[\"10,9,8,6=130\"]" angle=130 pbc="F F F"
N        4.06132428       2.49142725      -1.89008591
C        2.72938121       2.40421184      -1.95969123
C        1.99138067       1.51166494      -1.20465506
C        2.71954158       0.69554914      -0.35886177
N        4.05148043       0.75173238      -0.26440582
C        4.64595924       1.65350902      -1.04031208
C        0.47947868       1.47321684      -1.32190945
O       -0.06049786       2.13783878      -2.20864130
N       -0.10921238       0.64717465      -0.45635761
C       -1.43960369       0.68861362      -0.29723701
S       -2.36014872      -0.84876518      -0.38084200
C       -3.71271857       0.08458898       0.11285676
N       -3.50898547       1.33436476       0.31082173
N       -2.18857701       1.68531764       0.07794822
O       -4.93466158      -0.48402467       0.28972472
H        2.22925104       3.07461706      -2.64728609
H        5.72743294       1.71112446      -0.97230161
H        2.21551109      -0.03007363       0.26542954
H       -5.48781158       0.26327073       0.54906471
19
Properties=species:S:1:pos:R:3 energy=-29724.03403734265 constraints="[\"10,9,8,6=140\"]" angle=140 pbc="F F F"
N        4.11238699       2.62278411      -1.48779173
C        2.78198649       2.56821605      -1.60359611
C        2.01648686       1.56085132      -1.04593213
C        2.71562493       0.59098396      -0.35126323
N        4.04526063       0.61015886      -0.21745405
C        4.66758825       1.63287954      -0.79648613
C        0.50788483       1.56921987      -1.20248119
O        0.00264388       2.36770174      -1.99249996
N       -0.11453504       0.62695289      -0.48762383
C       -1.43913450       0.69046679      -0.30742249
S       -2.36642654      -0.84168361      -0.38650766
C       -3.71036759       0.09515326       0.12585762
N       -3.49845698       1.34292140       0.32746702
N       -2.17986875       1.69057202       0.08135590
O       -4.93346603      -0.46868886       0.31231787
H        2.30590383       3.36180416      -2.16562688
H        5.74743286       1.66200862      -0.69351990
H        2.19019136      -0.23185050       0.11471558
H       -5.47968468       0.27983062       0.58255745
19
Properties=species:S:1:pos:R:3 energy=-29724.023053195444 constraints="[\"10,9,8,6=150\"]" angle=150 pbc="F F F"
N        4.20670304       2.73961951      -0.58061040
C        2.90119869       2.68760394      -0.86197870
C        2.09301047       1.62464387      -0.50274158
C        2.72198804       0.59510754       0.17313232
N        4.02544014       0.60989096       0.46813323
C        4.69348833       1.68949539       0.07237264
C        0.61437870       1.64075912      -0.83910073
O        0.20113164       2.48964145      -1.62839523
N       -0.07803795       0.64492796      -0.27001073
C       -1.41161811       0.70559737      -0.20582466
S       -2.30024058      -0.85064839      -0.23241179
C       -3.70172096       0.09109786       0.07810589
N       -3.53075004       1.35625221       0.19032627
N       -2.20265200       1.71674510       0.03028356
O       -4.92683279      -0.48591342       0.20278556
H        2.48151997       3.52990766      -1.39742006
H        5.75237736       1.71562440       0.30811175
H        2.16049698      -0.27370500       0.48948773
H       -5.50780966       0.26854938       0.36063784
19
Properties=species:S:1:pos:R:3 energy=-29724.00395706258 constraints="[\"10,9,8,6=160\"]" angle=160 pbc="F F F"
N        4.22472428       2.72220741      -0.16962719
C        2.92320394       2.73339985      -0.47305193
C        2.10244708       1.63085964      -0.32102778
C        2.71467696       0.49114480       0.16772477
N        4.01381666       0.44075262       0.47743356
C        4.69491212       1.56753495       0.29061778
C        0.62934856       1.72194255      -0.66892312
O        0.23898645       2.69408428      -1.31276949
N       -0.08072639       0.65247736      -0.27486019
C       -1.41270080       0.71874881      -0.20100023
S       -2.29019614      -0.84459055      -0.21467331
C       -3.69898380       0.08910822       0.08630874
N       -3.53733357       1.35636327       0.18904299
N       -2.21240469       1.72612357       0.02588825
O       -4.92054170      -0.49550983       0.21201041
H        2.51725642       3.66191277      -0.85435062
H        5.75041031       1.54118970       0.54107945
H        2.14273445      -0.41483546       0.31638963
H       -5.50681872       0.25595813       0.36455624
19
Properties=species:S:1:pos:R:3 energy=-29723.978832791865 constraints="[\"10,9,8,6=170\"]" angle=170 pbc="F F F"
N        4.29034268       2.48718901      -0.33524180
C        2.96683772       2.61717592      -0.46808692
C        2.10009631       1.53985619      -0.49312617
C        2.68972312       0.29441771      -0.37439358
N        4.00905110       0.12483851      -0.24449639
C        4.73480947       1.23906379      -0.23106053
C        0.60664262       1.76492249      -0.63226364
O        0.21215051       2.88735370      -0.93978955
N       -0.11841592       0.64728846      -0.44530239
C       -1.43967018       0.72605581      -0.25816254
S       -2.32709277      -0.83290856      -0.29982122
C       -3.70888091       0.08812127       0.13242343
N       -3.53385509       1.34812948       0.29016393
N       -2.21927087       1.72200769       0.06532123
O       -4.92482515      -0.49768516       0.29925023
H        2.58033617       3.62449419      -0.55898019
H        5.80754305       1.11572629      -0.12347726
H        2.08143164      -0.59977662      -0.38351912
H       -5.49578718       0.24653500       0.52711892
19
Properties=species:S:1:pos:R:3 energy=-29723.96295195612 constraints="[\"10,9,8,6=180\"]" angle=180 pbc="F F F"
N        4.33270362       2.47342152      -0.26535934
C        3.00688214       2.62568425      -0.19211984
C        2.12191724       1.56291407      -0.19509395
C        2.69578615       0.30731955      -0.27978014
N        4.01640238       0.11547201      -0.35453429
C        4.76047525       1.21753340      -0.34274817
C        0.62739036       1.81322604      -0.10906269
O        0.23551555       2.97524553      -0.03798962
N       -0.09974340       0.68018345      -0.12271931
C       -1.43584108       0.74211372      -0.05301442
S       -2.27958493      -0.84342622      -0.08083511
C       -3.72715149       0.06891787       0.03202841
N       -3.60190400       1.34387790       0.08212007
N       -2.27451132       1.73671860       0.03297650
O       -4.94379486      -0.53722813       0.06618523
H        2.63246669       3.63960129      -0.12819743
H        5.83471825       1.07603881      -0.40290889
H        2.07223283      -0.57605340      -0.28785962
H       -5.55638061       0.20614775       0.12974147
19
Properties=species:S:1:pos:R:3 energy=-29723.978832519748 constraints="[\"10,9,8,6=190\"]" angle=190 pbc="F F F"
N        4.26632498       2.60512574      -0.17457906
C        2.96076172       2.69427501       0.09701350
C        2.11498380       1.60021944       0.11080759
C        2.70640339       0.38287505      -0.17409906
N        4.00862167       0.25394825      -0.44587534
C        4.71476979       1.38068574      -0.43121516
C        0.63968637       1.77983228       0.41356042
O        0.26262644       2.86267204       0.85551239
N       -0.08544903       0.66698734       0.20013863
C       -1.41967167       0.73274897       0.15057988
S       -2.27783319      -0.84317570       0.14060320
C       -3.70790880       0.08119174      -0.07084816
N       -3.56627381       1.35369866      -0.13259732
N       -2.24098271       1.73546582      -0.00530888
O       -4.92649306      -0.51456006      -0.16909214
H        2.57185027       3.68128123       0.31358036
H        5.77320783       1.29051227      -0.65284844
H        2.11381691      -0.52178337      -0.18497723
H       -5.52717215       0.23387966      -0.27304852
19
Properties=species:S:1:pos:R:3 energy=-29724.00395951161 constraints="[\"10,9,8,6=200\"]" angle=200 pbc="F F F"
N        4.22756491       2.71005065       0.16910074
C        2.92612937       2.72354724       0.47272615
C        2.10331403       1.62255225       0.32060395
C        2.71336876       0.48181802      -0.16848111
N        4.01237606       0.42913482      -0.47843512
C        4.69556114       1.55462923      -0.29149065
C        0.63044509       1.71628241       0.66878275
O        0.24198182       2.68914138       1.31269228
N       -0.08164746       0.64809264       0.27489820
C       -1.41352741       0.71675705       0.20135101
S       -2.29381299      -0.84500519       0.21524751
C       -3.70099917       0.09118606      -0.08539985
N       -3.53713230       1.35814450      -0.18818235
N       -2.21148451       1.72554904      -0.02537676
O       -4.92359968      -0.49125324      -0.21081429
H        2.52195269       3.65271567       0.85431223
H        5.75096402       1.52641446      -0.54215211
H        2.13974097      -0.42307905      -0.31723369
H       -5.50858303       0.26124869      -0.36324413
19
Properties=species:S:1:pos:R:3 energy=-29724.023057821374 constraints="[\"10,9,8,6=210\"]" angle=210 pbc="F F F"
N        4.16648945       2.66731402       1.06334515
C        2.83912107       2.66091915       1.21911624
C        2.04349944       1.58369537       0.87461501
C        2.70920195       0.48915296       0.35386690
N        4.03493215       0.45730223       0.18755946
C        4.68799535       1.55654233       0.55312444
C        0.54023590       1.65273024       1.06217878
O        0.07396008       2.57351245       1.73233088
N       -0.11844635       0.62247690       0.51472060
C       -1.43781511       0.69879992       0.31548177
S       -2.36267807      -0.83474061       0.38708559
C       -3.70436112       0.09888406      -0.13798180
N       -3.49248874       1.34657391      -0.34001737
N       -2.17750014       1.69819174      -0.08198714
O       -4.92556503      -0.46698675      -0.33247939
H        2.39061973       3.55334856       1.63711116
H        5.76494869       1.54507853       0.42067811
H        2.15969006      -0.39489888       0.05945579
H       -5.47004819       0.28014415      -0.60996646
19
Properties=species:S:1:pos:R:3 energy=-29724.03403652631 constraints="[\"10,9,8,6=220\"]" angle=220 pbc="F F F"
N        4.11010415       2.63476199       1.48711933
C        2.77983160       2.57776567       1.60322989
C        2.01601245       1.56917736       1.04547656
C        2.71672785       0.60075694       0.35037614
N        4.04629472       0.62236704       0.21625230
C        4.66692186       1.64605030       0.79541173
C        0.50743764       1.57477928       1.20239758
O        0.00093612       2.37227658       1.99260299
N       -0.11343740       0.63142619       0.48763034
C       -1.43820013       0.69251087       0.30779352
S       -2.36263771      -0.84135664       0.38700217
C       -3.70845267       0.09303738      -0.12489848
N       -3.49890577       1.34121017      -0.32646042
N       -2.18089278       1.69128164      -0.08068941
O       -4.93055495      -0.47304863      -0.31106769
H        2.30245978       3.37034309       2.16559295
H        5.74668714       1.67715344       0.69219257
H        2.19265913      -0.22289461      -0.11569458
H       -5.47823404       0.27448450      -0.58108225
19
Properties=species:S:1:pos:R:3 energy=-29724.038556337167 constraints="[\"10,9,8,6=230\"]" angle=230 pbc="F F F"
N        4.20026824       2.45858954       1.37088173
C        2.88329076       2.33925036       1.56543314
C        2.08242739       1.50086226       0.81238174
C        2.73002717       0.77559813      -0.17059136
N        4.04482437       0.86617935      -0.39250358
C        4.70493521       1.70907998       0.39642650
C        0.59072529       1.42238533       1.07647412
O        0.13613033       1.99709246       2.06775587
N       -0.07352079       0.66261542       0.20491245
C       -1.41357252       0.69115204       0.18399486
S       -2.30379208      -0.86572266       0.22380413
C       -3.70972803       0.07967494      -0.04802485
N       -3.54099697       1.34568395      -0.15471463
N       -2.20774792       1.70142730      -0.02522263
O       -4.93692815      -0.49574759      -0.15100449
H        2.44808985       2.93762549       2.35594415
H        5.77324199       1.79380891       0.22591916
H        2.17332137       0.09684468      -0.80279934
H       -5.52178772       0.25999377      -0.28693623
19
Properties=species:S:1:pos:R:3 energy=-29724.040221945976 constraints="[\"10,9,8,6=240\"]" angle=240 pbc="F F F"
N        4.20604742       2.19106485       1.68557472
C        2.88462666       2.06179002       1.83989875
C        2.08156387       1.39440710       0.93399770
C        2.73094231       0.85564144      -0.16113831
N        4.04992815       0.96230225      -0.34810206
C        4.71225921       1.62903666       0.59293433
C        0.58530902       1.29079368       1.16197176
O        0.11769007       1.71637291       2.22132304
N       -0.07151292       0.68600581       0.17512924
C       -1.41422361       0.68997975       0.17474162
S       -2.29788153      -0.87241348       0.21789822
C       -3.70974715       0.06780135      -0.03584153
N       -3.54844171       1.33517428      -0.13886956
N       -2.21489929       1.69513214      -0.02185814
O       -4.93488176      -0.51285552      -0.12915564
H        2.44780279       2.50935663       2.72381260
H        5.78415584       1.72429275       0.45326269
H        2.17127905       0.31879754      -0.91540360
H       -5.52513352       0.24055171      -0.25439659
19
Properties=species:S:1:pos:R:3 energy=-29724.043779562304 constraints="[\"10,9,8,6=250\"]" angle=250 pbc="F F F"
N        4.21949215       1.85851491       1.92082342
C        2.89473020       1.73047213       2.04517435
C        2.08429891       1.26263983       1.02786775
C        2.72893966       0.92778322      -0.14827780
N        4.05082377       1.04028989      -0.30915861
C        4.72077996       1.50248148       0.74271786
C        0.58493163       1.14507844       1.22749231
O        0.11123448       1.41714493       2.33462852
N       -0.07053794       0.71172646       0.15597311
C       -1.41484849       0.68976308       0.17173837
S       -2.29099231      -0.87863051       0.21984916
C       -3.70801355       0.05413907      -0.02705801
N       -3.55452345       1.32248229      -0.13155312
N       -2.22176406       1.68829363      -0.02176601
O       -4.93029802      -0.53298292      -0.11358001
H        2.46166375       2.01300538       2.99657023
H        5.79528336       1.59936985       0.62608113
H        2.16183761       0.55593144      -0.99117614
H       -5.52562567       0.21708345      -0.23484013
19
Properties=species:S:1:pos:R:3 energy=-29724.053588994073 constraints="[\"10,9,8,6=260\"]" angle=260 pbc="F F F"
N        3.98404354       1.63244554       2.71620158
C        2.65181448       1.52595364       2.68751200
C        1.94854482       1.18078200       1.54888476
C        2.70997336       0.94887478       0.41872566