19
Properties=species:S:1:pos:R:3 energy=-29724.344239499536 constraints="[\"7,6,2,1=0\"]" angle=0 pbc="F F F"
N        4.40240548      -0.96872590      -0.00030299
C        3.08007917      -1.16583934      -0.00026104
C        2.16898008      -0.12685215      -0.00006683
C        2.70408115       1.14880276       0.00009415
N        4.01854661       1.38288124       0.00005491
C        4.79398293       0.30132961      -0.00014544
C        0.67583176      -0.37420377      -0.00002125
O        0.25318620      -1.54385238      -0.00016212
N       -0.05012885       0.73843189       0.00017203
C       -1.39247665       0.59741189       0.00021581
S       -2.28484427      -0.94621592       0.00003491
C       -3.69401771       0.03036169       0.00024956
N       -3.52345030       1.30372739       0.00042606
N       -2.18313042       1.63605722       0.00040545
O       -4.93980726      -0.51731580       0.00023363
H        2.74232414      -2.19496112      -0.00038566
H        5.86502789       0.47529089      -0.00018363
H        2.03840769       2.00136392       0.00025997
H       -5.51699765       0.25630784       0.00037562
19
Properties=species:S:1:pos:R:3 energy=-29724.34100950827 constraints="[\"7,6,2,1=10\"]" angle=10 pbc="F F F"
N        4.40306873      -0.92797774      -0.02914797
C        3.08179806      -1.13042264      -0.05315114
C        2.16553851      -0.11594000       0.14874579
C        2.69423953       1.14493136       0.35925522
N        4.00751847       1.38317498       0.39364874
C        4.78841518       0.32324048       0.19953636
C        0.67409687      -0.36720651       0.10042428
O        0.25573964      -1.53768518       0.06098042
N       -0.05487943       0.74354331       0.10956119
C       -1.39574302       0.59933143       0.05294625
S       -2.28192292      -0.94579253      -0.02975480
C       -3.69344688       0.02695333      -0.05807817
N       -3.52769742       1.30008916      -0.01165263
N       -2.18968666       1.63550986       0.05292609
O       -4.93616342      -0.52345100      -0.12651739
H        2.74937608      -2.14380499      -0.24245109
H        5.85855667       0.50019103       0.22875220
H        2.02542768       1.98391767       0.49646971
H       -5.51568802       0.24842613      -0.12666972
19
Properties=species:S:1:pos:R:3 energy=-29724.33140008017 constraints="[\"7,6,2,1=20\"]" angle=20 pbc="F F F"
N        4.39410141      -0.86531616      -0.23679864
C        3.07320405      -1.07063379      -0.24306866
C        2.16386798      -0.11424248       0.16665244
C        2.69865033       1.10124151       0.55437752
N        4.01228750       1.33921104       0.58057904
C        4.78686307       0.33169415       0.18640656
C        0.67308985      -0.36549246       0.11807639
O        0.25623140      -1.53588239       0.06832528
N       -0.05625089       0.74526224       0.14113312
C       -1.39633960       0.59992502       0.07204127
S       -2.27925156      -0.94557824      -0.03969329
C       -3.69232163       0.02484534      -0.06776439
N       -3.52948517       1.29743722      -0.00157854
N       -2.19271734       1.63440007       0.07965309
O       -4.93330288      -0.52677827      -0.15593756
H        2.73538805      -2.03893485      -0.59207049
H        5.85723693       0.50798883       0.20879692
H        2.03875722       1.90911993       0.84082338
H       -5.51425034       0.24401070      -0.15084487
19
Properties=species:S:1:pos:R:3 energy=-29724.3171565534 constraints="[\"7,6,2,1=30\"]" angle=30 pbc="F F F"
N        4.37346297      -0.77154281      -0.43298487
C        3.05225543      -0.97290751      -0.42558605
C        2.16159600      -0.10303041       0.17460557
C        2.71749879       1.02757724       0.74600959
N        4.03313080       1.25669552       0.76661386
C        4.78807592       0.33431970       0.17626116
C        0.67112873      -0.35267151       0.12750003
O        0.25745826      -1.52355552       0.07488306
N       -0.06130806       0.75680005       0.15221862
C       -1.39983025       0.60567135       0.07742076
S       -2.27375698      -0.94468083      -0.03923782
C       -3.69247784       0.01712675      -0.07290284
N       -3.53740792       1.29053226      -0.00490124
N       -2.20297705       1.63533055       0.08233706
O       -4.92992701      -0.54163156      -0.16725976
H        2.69811721      -1.86786554      -0.92294119
H        5.85938498       0.50543033       0.18981376
H        2.08218863       1.78043971       1.19354832
H       -5.51524962       0.22585017      -0.16450781
19
Properties=species:S:1:pos:R:3 energy=-29724.300163860513 constraints="[\"7,6,2,1=40\"]" angle=40 pbc="F F F"
N        4.33097934      -0.67759009      -0.78847080
C        3.01084729      -0.87783399      -0.73364011
C        2.16428154      -0.11645474       0.04972738
C        2.76401720       0.90822749       0.75933435
N        4.08092764       1.13076208       0.73886121
C        4.79142203       0.31611130      -0.03572160
C        0.67188551      -0.35852956       0.04900752
O        0.25442726      -1.52858576       0.02101047
N       -0.05458514       0.75506820       0.08305716
C       -1.39507662       0.60579277       0.04823653
S       -2.27405893      -0.94453510      -0.02227797
C       -3.69233577       0.01845496      -0.02786096
N       -3.53400434       1.29231973       0.01838320
N       -2.19717238       1.63642086       0.06232283
O       -4.93264020      -0.53983394      -0.07893336
H        2.62181981      -1.68253622      -1.34621604
H        5.86308873       0.48352516      -0.05918754
H        2.16827754       1.58348361       1.35998592
H       -5.51678604       0.22849107      -0.06992667
19
Properties=species:S:1:pos:R:3 energy=-29724.27976756774 constraints="[\"7,6,2,1=50\"]" angle=50 pbc="F F F"
N        4.33327935      -0.48437727      -0.74211011
C        3.01423006      -0.69830491      -0.73170329
C        2.15916650      -0.09966226       0.17387262
C        2.74977665       0.78125998       1.06112523
N        4.06545960       1.01072837       1.08991030
C        4.78458532       0.35623260       0.18307607
C        0.66754524      -0.34537414       0.12296384
O        0.25766549      -1.51689768       0.06699595
N       -0.06178320       0.76677267       0.15107417
C       -1.40075270       0.61131519       0.07586575
S       -2.26996766      -0.94227698      -0.03533532
C       -3.69258141       0.01362463      -0.07075114
N       -3.54205434       1.28754108      -0.00732605
N       -2.20865950       1.63763662       0.07762810
O       -4.92810225      -0.55025587      -0.16215809
H        2.63476082      -1.37853588      -1.48530018
H        5.85522702       0.53083165       0.19659963
H        2.14978756       1.33484355       1.77254129
H       -5.51621535       0.21508408      -0.16195444
19
Properties=species:S:1:pos:R:3 energy=-29724.257400354432 constraints="[\"7,6,2,1=60\"]" angle=60 pbc="F F F"
N        4.31568608      -0.30909600      -0.84719084
C        2.99725010      -0.52726556      -0.84836223
C        2.15909110      -0.09692113       0.16240845
C        2.76695929       0.61935898       1.17652683
N        4.08274681       0.84719064       1.21931453
C        4.78448887       0.36239968       0.19958875
C        0.66588734      -0.34182156       0.10857366
O        0.25827627      -1.51416238       0.05668418
N       -0.06174130       0.77162953       0.13321737
C       -1.40188651       0.61377299       0.06603761
S       -2.27087837      -0.94101441      -0.03133814
C       -3.69463892       0.01332355      -0.06272108
N       -3.54468089       1.28752614      -0.00760312
N       -2.21096875       1.63920381       0.06690573
O       -4.93023232      -0.55228442      -0.14268390
H        2.60573835      -1.06951609      -1.70139968
H        5.85481277       0.53782049       0.22171312
H        2.18305365       1.03895992       1.98672600
H       -5.51905898       0.21250053      -0.14285096
19
Properties=species:S:1:pos:R:3 energy=-29724.238446265 constraints="[\"7,6,2,1=70\"]" angle=70 pbc="F F F"
N        4.26674426      -0.15824563      -1.11054301
C        2.94620899      -0.36192792      -1.08298923
C        2.16202233      -0.09065356       0.02206716
C        2.83090660       0.43286176       1.11238962
N        4.15069923       0.64244971       1.12673499
C        4.79495933       0.33111963       0.00660647
C        0.66568125      -0.33328713       0.01711411
O        0.26077551      -1.50754803       0.00663601
N       -0.06141092       0.78061036       0.03168449
C       -1.40362960       0.61842191       0.01877407
S       -2.27290459      -0.93924966      -0.00229019
C       -3.69890989       0.01220806      -0.00645596
N       -3.54946514       1.28743901       0.00662257
N       -2.21456096       1.64241094       0.02089817
O       -4.93542980      -0.55688725      -0.02307381
H        2.50893595      -0.75812213      -1.99234255
H        5.86700782       0.49694464       0.00261924
H        2.29789943       0.70426709       2.01598125
H       -5.52551520       0.20691972      -0.02226858
19
Properties=species:S:1:pos:R:3 energy=-29724.227429192015 constraints="[\"7,6,2,1=80\"]" angle=80 pbc="F F F"
N        4.27050831       0.06814845      -0.97828638
C        2.94825978      -0.12604728      -0.99647928
C        2.15810993      -0.05540227       0.13490431
C        2.82517135       0.23759867       1.30903829
N        4.14592783       0.43406318       1.36918075
C        4.79454416       0.33791095       0.21304939
C        0.66311509      -0.30580956       0.08827077
O        0.27036559      -1.48387579       0.06726980
N       -0.07191248       0.80252392       0.07809462
C       -1.41253712       0.62870106       0.03349939
S       -2.26879284      -0.93595750      -0.00578243
C       -3.70198038       0.00380258      -0.04516558
N       -3.56308863       1.28010966      -0.03093607
N       -2.23178257       1.64591293       0.01462979
O       -4.93308686      -0.57548649      -0.08967305
H        2.51532910      -0.34497555      -1.96584358
H        5.86698103       0.49796052       0.24490268
H        2.29073308       0.32426902       2.24793990
H       -5.52926694       0.18343912      -0.10370953
19
Properties=species:S:1:pos:R:3 energy=-29724.2244715867 constraints="[\"7,6,2,1=90\"]" angle=90 pbc="F F F"
N        4.24233125       0.26477901      -1.00301427
C        2.91780931       0.08567769      -1.01900152
C        2.15727239      -0.03301872       0.12849259
C        2.85951188       0.03445378       1.31658653
N        4.18286616       0.21333497       1.37472338
C        4.79965092       0.32152680       0.20231652
C        0.66274346      -0.28691680       0.08651664
O        0.27719888      -1.46745584       0.08026730
N       -0.07751261       0.81739328       0.06001914
C       -1.41745703       0.63612383       0.02248733
S       -2.26587802      -0.93325897       0.00467194
C       -3.70405522      -0.00141223      -0.04021393
N       -3.57167268       1.27563739      -0.04170079
N       -2.24213368       1.64877118      -0.00521645
O       -4.93229104      -0.58755065      -0.07283019
H        2.45857914       0.03845262      -1.99969669
H        5.87356038       0.47168156       0.23243956
H        2.35194923      -0.05594196       2.27007805
H       -5.53248816       0.16806063      -0.09301079
19
Properties=species:S:1:pos:R:3 energy=-29724.229699981996 constraints="[\"7,6,2,1=100\"]" angle=100 pbc="F F F"
N        4.21097677       0.46243368      -1.00018240
C        2.88430313       0.29876796      -1.00511769
C        2.15625534      -0.00848071       0.12861714
C        2.89735358      -0.16783938       1.28428855
N        4.22328014      -0.00686633       1.33181652
C        4.80499977       0.30622674       0.17843480
C        0.66251266      -0.26585387       0.09168168
O        0.28353692      -1.44858028       0.10001059
N       -0.08450586       0.83332824       0.04730063
C       -1.42321445       0.64441051       0.01366142
S       -2.26237386      -0.93001962       0.01581361
C       -3.70601678      -0.00716789      -0.03803313
N       -3.58115374       1.27056923      -0.05523736
N       -2.25381843       1.65186982      -0.02498195
O       -4.93082945      -0.60077066      -0.06138500
H        2.39625211       0.42230263      -1.96493495
H        5.88043485       0.44656246       0.20117367
H        2.41991900      -0.43696141       2.21957951
H       -5.53549351       0.15102885      -0.08922251
19
Properties=species:S:1:pos:R:3 energy=-29724.242592735674 constraints="[\"7,6,2,1=110\"]" angle=110 pbc="F F F"
N        4.17978326       0.65870017      -0.96455106
C        2.85247692       0.50082513      -0.95836899
C        2.15539223       0.00625321       0.12779112
C        2.93010095      -0.36034415       1.21231530
N        4.25719559      -0.20830203       1.24924157
C        4.80663791       0.30238819       0.15190069
C        0.66334471      -0.25439581       0.09314522
O        0.28683650      -1.43794976       0.11064038
N       -0.08793615       0.84137920       0.03562941
C       -1.42554496       0.64894619       0.00605090
S       -2.25931951      -0.92811536       0.02390616
C       -3.70602734      -0.01035762      -0.03448180
N       -3.58542119       1.26768109      -0.06357820
N       -2.25933727       1.65350350      -0.03977653
O       -4.92899412      -0.60794026      -0.04912196
H        2.33704675       0.78668759      -1.86775381
H        5.88273481       0.43869425       0.16797708
H        2.47884245      -0.79905872       2.09490479
H       -5.53612047       0.14168306      -0.08174535
19
Properties=species:S:1:pos:R:3 energy=-29724.26139716249 constraints="[\"7,6,2,1=120\"]" angle=120 pbc="F F F"
N        4.14707819       0.84930460      -0.89400825
C        2.82091332       0.68445545      -0.88037902
C        2.15501868       0.00663421       0.12345197
C        2.95884711      -0.53641950       1.10813738
N        4.28571441      -0.38176212       1.13718279
C        4.80417021       0.31253992       0.12915453
C        0.66526055      -0.25705857       0.08741523
O        0.28629810      -1.43997707       0.10531099
N       -0.08662915       0.83810155       0.02438724
C       -1.42369687       0.64769074      -0.00068833
S       -2.25818539      -0.92873608       0.02580122
C       -3.70435178      -0.00996265      -0.02995835
N       -3.58304307       1.26801577      -0.06455698
N       -2.25667243       1.65293080      -0.04737982
O       -4.92786217      -0.60647196      -0.03699805
H        2.27768244       1.11887491      -1.71098140
H        5.88000803       0.45155413       0.14046366
H        2.53116905      -1.12637918       1.91051779
H       -5.53448411       0.14356306      -0.06967423
19
Properties=species:S:1:pos:R:3 energy=-29724.282143393666 constraints="[\"7,6,2,1=130\"]" angle=130 pbc="F F F"
N        4.09547542       1.00309094      -0.96257470
C        2.77211632       0.82491136      -0.91380958
C        2.15787748      -0.01201045      -0.00081328
C        3.00824827      -0.69222620       0.85063490
N        4.33442524      -0.52962892       0.84192941
C        4.80203689       0.31832431      -0.06864684
C        0.66869198      -0.27466325       0.00253616
O        0.28244831      -1.45497396       0.03798307
N       -0.08167738       0.82238841      -0.04749407
C       -1.41900373       0.63982062      -0.02993470
S       -2.26001712      -0.93183560       0.03599690
C       -3.70230839      -0.00547512       0.01867012
N       -3.57562386       1.27164992      -0.03076608
N       -2.24747616       1.64940988      -0.05897018
O       -4.92856347      -0.59511355       0.05588818
H        2.18599684       1.38034023      -1.63550108
H        5.87699630       0.46352923      -0.08702970
H        2.61891834      -1.40262144       1.57042145
H       -5.53191691       0.15801249       0.03628648
19
Properties=species:S:1:pos:R:3 energy=-29724.300957616582 constraints="[\"7,6,2,1=140\"]" angle=140 pbc="F F F"
N        4.08631482       1.17850130      -0.65101966
C        2.76509119       0.98046078      -0.64574516
C        2.15727731      -0.01610992       0.09571651
C        3.00984841      -0.82572834       0.82280905
N        4.33408788      -0.64991786       0.85248364
C        4.79615803       0.35114593       0.11022221
C        0.66967064      -0.28215647       0.05585451
O        0.27877786      -1.46161185       0.06061501
N       -0.08038375       0.81525932       0.00834151
C       -1.41739066       0.63616307      -0.00739591
S       -2.26293368      -0.93412917       0.01595094
C       -3.70212459      -0.00342709      -0.01896627
N       -3.57135776       1.27409697      -0.04645747
N       -2.24207617       1.64857969      -0.03964583
O       -4.93035440      -0.58999440      -0.01758950
H        2.17333898       1.65012644      -1.25675358
H        5.86966162       0.50751186       0.12426239
H        2.62246974      -1.65353208       1.40466067
H       -5.53124228       0.16504973      -0.03928240
19
Properties=species:S:1:pos:R:3 energy=-29724.31687110598 constraints="[\"7,6,2,1=150\"]" angle=150 pbc="F F F"
N        4.05704259       1.30419740      -0.48837382
C        2.73854216       1.08986654      -0.48973855
C        2.15925641      -0.02817234       0.08262511
C        3.03503790      -0.93447358       0.65067568
N        4.35796764      -0.74809682       0.68023300
C        4.79245254       0.36886148       0.10576879
C        0.67168488      -0.29524835       0.04296742
O        0.27550059      -1.47320561       0.04033826
N       -0.07697827       0.80321772       0.00526010
C       -1.41449845       0.62967619      -0.00800243
S       -2.26685958      -0.93690515       0.01024661
C       -3.70161577       0.00096568      -0.01602073
N       -3.56497224       1.27810512      -0.03785160
N       -2.23399084       1.64626213      -0.03313371
O       -4.93256361      -0.57972498      -0.01394388
H        2.12186070       1.84340479      -0.96180855
H        5.86466956       0.53405659       0.12088787
H        2.66671659      -1.84949777       1.09851027
H       -5.52995475       0.17822181      -0.03057206
19
Properties=species:S:1:pos:R:3 energy=-29724.33047979117 constraints="[\"7,6,2,1=160\"]" angle=160 pbc="F F F"
N        4.02166687       1.40220498      -0.30507253
C        2.70721533       1.16643493      -0.30758389
C        2.16152658      -0.04464110       0.07821226
C        3.06360973      -1.01732019       0.46576051
N        4.38452018      -0.81409382       0.48849817
C        4.78649577       0.39123900       0.09862365
C        0.67371768      -0.31375147       0.04002932
O        0.27257474      -1.49049596       0.03025478
N       -0.07042744       0.78725185       0.00899615
C       -1.40957087       0.62140562      -0.00587893
S       -2.27287224      -0.93921107       0.00520698
C       -3.70053456       0.00966130      -0.01807414
N       -3.55451263       1.28590560      -0.03432546
N       -2.22087486       1.64418307      -0.02726109
O       -4.93558566      -0.56199778      -0.01948577
H        2.05765297       1.97262583      -0.62123706
H        5.85671570       0.56953828       0.10934387
H        2.71939509      -1.99878460       0.76841076
H       -5.52749856       0.20028740      -0.03365768
19
Properties=species:S:1:pos:R:3 energy=-29724.340669365974 constraints="[\"7,6,2,1=170\"]" angle=170 pbc="F F F"
N        3.99447214       1.45539951      -0.29610427
C        2.68302313       1.20653946      -0.26588157
C        2.16383099      -0.05699187      -0.04813254
C        3.08795009      -1.06749471       0.13748049
N        4.40756371      -0.85427327       0.11799615
C        4.78332464       0.40183758      -0.09972097
C        0.67471538      -0.32544985      -0.03505602
O        0.26952642      -1.50111192      -0.02216562
N       -0.06698004       0.77691338      -0.04623455
C       -1.40698397       0.61642500      -0.02409969
S       -2.27644271      -0.93991234       0.01566656
C       -3.69973488       0.01589003       0.02477190
N       -3.54814403       1.29139746       0.00031281
N       -2.21308747       1.64320018      -0.02819553
O       -4.93705321      -0.54981455       0.05635821
H        2.00824585       2.03878919      -0.41449662
H        5.85202596       0.58844457      -0.12024304
H        2.76342198      -2.08684119       0.30737708
H       -5.52558461       0.21521420       0.05401593
19
Properties=species:S:1:pos:R:3 energy=-29724.34423813896 constraints="[\"7,6,2,1=180\"]" angle=180 pbc="F F F"
N        3.99182773       1.47806340       0.09425851
C        2.68096576       1.22536823       0.07432705
C        2.16416981      -0.05772016       0.05907975
C        3.08991782      -1.08365609       0.06560266
N        4.40916674      -0.86781690       0.08542225
C        4.78254025       0.40763963       0.09864214
C        0.67484724      -0.32621989       0.03658741
O        0.26897860      -1.50172160       0.02356320
N       -0.06684176       0.77599080       0.03311753
C       -1.40691478       0.61596825       0.01340488
S       -2.27710706      -0.94011544      -0.00847289
C       -3.69990970       0.01639622      -0.02236830
N       -3.54752511       1.29202458      -0.01226536
N       -2.21220837       1.64329345       0.00857845
O       -4.93764936      -0.54885723      -0.04318750
H        2.00326178       2.06838750       0.07009337
H        5.85088855       0.59677044       0.11480298
H        2.76691701      -2.11744521       0.05459214
H       -5.52574509       0.21650274      -0.04661328
19
Properties=species:S:1:pos:R:3 energy=-29724.34067072654 constraints="[\"7,6,2,1=190\"]" angle=190 pbc="F F F"
N        3.99449669       1.45528715       0.29626003
C        2.68304692       1.20641876       0.26617565
C        2.16383354      -0.05704977       0.04812376
C        3.08793670      -1.06747919      -0.13797826
N        4.40755232      -0.85424588      -0.11865642
C        4.78333089       0.40180140       0.09940035
C        0.67471462      -0.32550070       0.03511932
O        0.26951091      -1.50115619       0.02193935
N       -0.06696454       0.77686907       0.04665385
C       -1.40697174       0.61641115       0.02456219
S       -2.27646537      -0.93990072      -0.01548733
C       -3.69973540       0.01593735      -0.02427769
N       -3.54811205       1.29143631       0.00043654
N       -2.21304804       1.64320600       0.02893325
O       -4.93706995      -0.54973292      -0.05590142
H        2.00828183       2.03861094       0.41516608
H        5.85203279       0.58841926       0.11978861
H        2.76338884      -2.08677203      -0.30815503
H       -5.52558385       0.21530834      -0.05335927
19
Properties=species:S:1:pos:R:3 energy=-29724.330480879624 constraints="[\"7,6,2,1=200\"]" angle=200 pbc="F F F"
N        4.02168391       1.40215263       0.30521103
C        2.70722831       1.16637910       0.30775982
C        2.16152075      -0.04459903      -0.07830350
C        3.06358008      -1.01714122      -0.46626202
N        4.38448478      -0.81391386      -0.48904087
C        4.78648411       0.39130100      -0.09881780
C        0.67371627      -0.31373298      -0.04006394
O        0.27258395      -1.49048184      -0.03056064
N       -0.07043607       0.78725624      -0.00867277
C       -1.40957616       0.62139844       0.00629351
S       -2.27286518      -0.93922194      -0.00509843
C       -3.70053493       0.00962879       0.01860051
N       -3.55452043       1.28587053       0.03515933
N       -2.22088505       1.64416435       0.02803012
O       -4.93558025      -0.56204251       0.02001467
H        2.05768286       1.97248634       0.62166191
H        5.85670543       0.56959129      -0.10952871
H        2.71933594      -1.99850031      -0.76922048
H       -5.52749886       0.20023343       0.03444330
19
Properties=species:S:1:pos:R:3 energy=-29724.316873282893 constraints="[\"7,6,2,1=210\"]" angle=210 pbc="F F F"
N        4.04314579       1.29061685       0.66938574
C        2.72491781       1.07779070       0.63275503
C        2.16027694      -0.03279370       0.03193575
C        3.05031291      -0.93339215      -0.52288092
N        4.37371958      -0.74820683      -0.51464902
C        4.79351990       0.36146512       0.08432340
C        0.67196224      -0.29859782       0.02841660
O        0.27485711      -1.47604952       0.00655844
N       -0.07650563       0.80022444       0.05885124
C       -1.41405286       0.62810722       0.03405950
S       -2.26697401      -0.93715081      -0.02551745
C       -3.70109562       0.00204340      -0.02688206
N       -3.56398861       1.27867452       0.01360716
N       -2.23304915       1.64529414       0.04904848
O       -4.93203376      -0.57712578      -0.06891676
H        2.09638810       1.82645079       1.09689812
H        5.86589077       0.52560820       0.09997763
H        2.69343256      -1.84271537      -0.99112676
H       -5.52900755       0.18127419      -0.05948583
19
Properties=species:S:1:pos:R:3 energy=-29724.300959249267 constraints="[\"7,6,2,1=220\"]" angle=220 pbc="F F F"
N        4.06883502       1.16049799       0.82891927
C        2.74797112       0.96456728       0.78621503
C        2.15881144      -0.02242402       0.01738424
C        3.02947511      -0.82491764      -0.69605939
N        4.35424406      -0.65083860      -0.68848400
C        4.79766183       0.34088833       0.07731056
C        0.67035680      -0.28664017       0.01460846
O        0.27830197      -1.46536197      -0.01420976
N       -0.07936385       0.81129811       0.05483783
C       -1.41653154       0.63405617       0.03294834
S       -2.26304166      -0.93458297      -0.03092976
C       -3.70152933      -0.00217233      -0.02354858
N       -3.57000740       1.27475433       0.02209600
N       -2.24056035       1.64728423       0.05491381
O       -4.92999153      -0.58683134      -0.06429940
H        2.14102208       1.62805438       1.38900484
H        5.87135213       0.49574722       0.09362147
H        2.65669780      -1.64538265      -1.29751808
H       -5.53033526       0.16882011      -0.04989571
19
Properties=species:S:1:pos:R:3 energy=-29724.28214230521 constraints="[\"7,6,2,1=230\"]" angle=230 pbc="F F F"
N        4.09557648       1.00279613       0.96258358
C        2.77221175       0.82463646       0.91390054
C        2.15787719      -0.01202010       0.00072551
C        3.00815914      -0.69199500      -0.85100376
N        4.33433771      -0.52940599      -0.84238499
C        4.80204496       0.31828347       0.06838781
C        0.66869009      -0.27466519      -0.00254957
O        0.28243745      -1.45496390      -0.03829689
N       -0.08166922       0.82237544       0.04787150
C       -1.41899820       0.63981901       0.03039410
S       -2.26002602      -0.93181406      -0.03590482
C       -3.70231110      -0.00545174      -0.01816688
N       -3.57561527       1.27165849       0.03162378
N       -2.24746294       1.64940394       0.05980312
O       -4.92857276      -0.59507357      -0.05543130
H        2.18616770       1.37986045       1.63581088
H        5.87700687       0.46347841       0.08670404
H        2.61875349      -1.40218173      -1.57095526
H       -5.53192052       0.15804975      -0.03555250
19
Properties=species:S:1:pos:R:3 energy=-29724.26139988363 constraints="[\"7,6,2,1=240\"]" angle=240 pbc="F F F"
N        4.14716454       0.84907704       0.89395699
C        2.82099747       0.68423962       0.88040726
C        2.15500543       0.00669457      -0.12354571
C        2.95873654      -0.53607014      -1.10846970
N        4.28560180      -0.38141192      -1.13759859
C        4.80415688       0.31259192      -0.12941643
C        0.66525281      -0.25701923      -0.08743039
O        0.28629821      -1.43993578      -0.10561872
N       -0.08663961       0.83811632      -0.02401922
C       -1.42370249       0.64768528       0.00114173
S       -2.25817914      -0.92874042      -0.02570135
C       -3.70434858      -0.00999424       0.03045933
N       -3.58304760       1.26797545       0.06540372
N       -2.25668134       1.65290557       0.04819959
O       -4.92785412      -0.60651601       0.03745514
H        2.27784579       1.11844204       1.71117491
H        5.87999618       0.45159073      -0.14078021
H        2.53097734      -1.12578450      -1.91098725
H       -5.53447832       0.14350527       0.07040234
19
Properties=species:S:1:pos:R:3 energy=-29724.24259409624 constraints="[\"7,6,2,1=250\"]" angle=250 pbc="F F F"
N        4.17986820       0.65847907       0.96442918
C        2.85255335       0.50064771       0.95830439
C        2.15536930       0.00643713      -0.12795573
C        2.93000758      -0.36005687      -1.21256718
N        4.25710490      -0.20806733      -1.24954558
C        4.80663523       0.30242095      -0.15215298
C        0.66333244      -0.25424319      -0.09324119
O        0.28686791      -1.43780419      -0.11110156
N       -0.08797789       0.84148536      -0.03525040
C       -1.42557282       0.64899684      -0.00556253
S       -2.25929208      -0.92808555      -0.02396837
C       -3.70602672      -0.01040094       0.03496630
N       -3.58546228       1.26762981       0.06458767
N       -2.25939386       1.65350711       0.04079034
O       -4.92897452      -0.60803282       0.04949732
H        2.33720939       0.78621368       1.86783123
H        5.88272737       0.43875468      -0.16829632
H        2.47868643      -0.79866923      -2.09517575
H       -5.53611941       0.14155885       0.08249469
19
Properties=species:S:1:pos:R:3 energy=-29724.229699981996 constraints="[\"7,6,2,1=260\"]" angle=260 pbc="F F F"
N        4.21106455       0.46218743       0.99999010
C        2.88439078       0.29853142       1.00499585
C        2.15623786      -0.00840541      -0.12875780
C        2.89723573      -0.16748406      -1.28453099